StdInChIKey,SMILES,LogS,T,Source,Solvent,Solvent_SMILES,Smilesa,REF1,REF2,REF3,REF4,REF5
NOIRTYMOEFHJRM-UHFFFAOYSA-N,COCN1C(=O)c2ccccc2C1=O,-0.36063907,25.0,Reaxys,benzene,c1ccccc1,,,,,,
NRDWUPPIGBHWAS-ZJUUUORDSA-N,CCC[C@H]1CC2=C(C[C@@H](CC)CC3=C1C(=O)OC3=O)C(=O)OC2=O,-0.64653834,20.0,Reaxys,benzene,c1ccccc1,,,,,,
NRJPVIOTANUINF-UHFFFAOYSA-N,Oc1ccc(cc1)N=Nc2ccc(cc2)[N+]([O-])=O,-1.924984809,30.0,Reaxys,benzene,c1ccccc1,,,,,,
NTEQGUOUNBBNKZ-QURGRASLSA-N,CC(=O)c1cccc(c1)N=Nc2cc(ccc2O)c3ccccc3,-0.771634878,30.0,Reaxys,benzene,c1ccccc1,,,,,,
NUVPXAUGUJCZAI-QZQOTICOSA-N,CCC(C)(C)c1ccc(O)c(c1)N=Nc2ccc(cc2)C(C)=O,-0.476427265,30.0,Reaxys,benzene,c1ccccc1,,,,,,
NZHXEWZGTQSYJM-UHFFFAOYSA-N,BrC(c1ccccc1)(c2ccccc2)c3ccccc3,0.029586852,25.0,Reaxys,benzene,c1ccccc1,,,,,,
NZXYYWMLCFKCPV-UHFFFAOYSA-N,COc1cc(c(c(c1OC)[N+]([O-])=O)[N+]([O-])=O)[N+]([O-])=O,-0.917901574,18.0,Reaxys,benzene,c1ccccc1,,,,,,
OCBCARWPRGBCGF-UHFFFAOYSA-N,Oc1ccc(cc1)N=Nc2cccc(Cl)c2,-0.618733559,30.0,Reaxys,benzene,c1ccccc1,,,,,,
ODTSCSXVTPSHPK-UHFFFAOYSA-N,OC1(N(CCBr)C(=O)c2ccccc12)c3ccccc3,-1.624649091,19.0,Reaxys,benzene,c1ccccc1,,,,,,
OENYBIZVWXUXCG-UHFFFAOYSA-N,NC(=O)C(O)c1cccc(Cl)c1,-2.946382076,22.0,Reaxys,benzene,c1ccccc1,,,,,,
OETISESXIXCPAD-UHFFFAOYSA-N,O=C1CCCCCCCCCCCCN1,-1.329362948,22.0,Reaxys,benzene,c1ccccc1,,,,,,
OFOBLEOULBTSOW-UHFFFAOYSA-N,OC(=O)CC(O)=O,-3.928660027,25.0,Reaxys,benzene,c1ccccc1,,,,,,
OHFMYIFFLOZSMF-UHFFFAOYSA-N,CC2(C)COP(=O)(NCCNP1(=O)OCC(C)(C)CO1)OC2,-3.150861982,24.99,Reaxys,benzene,c1ccccc1,,,,,,
OLBYFEGTUWWPTR-SQFISAMPSA-N,O/N=C(/c1ccccc1)C(=O)c2ccccc2,-0.194327676,33.5,Reaxys,benzene,c1ccccc1,,,,,,
OLVPZKMXZBVFAM-UHFFFAOYSA-N,CCCCCCCCCCC(C)(C)C(=O)NO,-1.999982157,26.0,Reaxys,benzene,c1ccccc1,,,,,,
ONBYIMHQEQLHBZ-UHFFFAOYSA-N,c1ccc2C#CC#Cc3ccccc3C#CC#Cc2c1,-1.616797483,20.0,Reaxys,benzene,c1ccccc1,,,,,,
ONZOGXRINCURBP-AOOOYVTPSA-N,O=C(OCC(C)C)[C@@H](O)[C@H](O)C(=O)OCC(C)C,-0.24585023,20.0,Reaxys,benzene,c1ccccc1,,,,,,
OOSBCICQIJKSIO-UHFFFAOYSA-N,O=C(c1ccccc1)c2cccc3c(cccc23)C(=O)c4ccccc4,-1.429002933,25.0,Reaxys,benzene,c1ccccc1,,,,,,
OPOPTXYBSHDZOM-UHFFFAOYSA-N,CCCCC(CC)CC(CC)(CC)C(=O)NO,0.0,26.0,Reaxys,benzene,c1ccccc1,,,,,,
OQIQNXUBIATXQJ-GDNBJRDFSA-N,CCOC(=O)C(=NNc1cccc(Br)c1)C#N,-1.607385594,15.0,Reaxys,benzene,c1ccccc1,,,,,,
ORILYTVJVMAKLC-UHFFFAOYSA-N,C1C2CC3CC1CC(C2)C3,-0.83006313,20.0,Reaxys,benzene,c1ccccc1,,,,,,
OROGSEYTTFOCAN-DNJOTXNNSA-N,COc1ccc2C[C@@H]3[C@@H]4C=C[C@H](O)[C@@H]5Oc1c2[C@]45CCN3C,-0.476208277,25.0,Reaxys,benzene,c1ccccc1,,,,,,
OULGPEGCMIIUQN-UHFFFAOYSA-N,CCCCCC(CC)=NNC(N)=O,-0.469843114,20.0,Reaxys,benzene,c1ccccc1,,,,,,
OXNIZHLAWKMVMX-UHFFFAOYSA-N,Oc1c(cc(cc1[N+]([O-])=O)[N+]([O-])=O)[N+]([O-])=O,-0.482089511,22.4,Reaxys,benzene,c1ccccc1,,,,,,
PBQLPYWWRPIKQW-UHFFFAOYSA-N,[O-][N+](=O)c1cc(c(ON=C(c2ccccc2)c3ccccc3)c(c1)[N+]([O-])=O)[N+]([O-])=O,-0.870645408,,Reaxys,benzene,c1ccccc1,,,,,,
PCTSKBFIBUMUSL-UHFFFAOYSA-N,Cl[P](Cl)(Cl)=N[S](=O)(=O)c1ccc2ccccc2c1,-0.778874472,19.0,Reaxys,benzene,c1ccccc1,,,,,,
PDLXUMBZNQXZBK-VZUCSPMQSA-N,CCOC(=O)C(C)(N=[N+]=[N-])C(C)=NNC(N)=O,0.138636039,,Reaxys,benzene,c1ccccc1,,,,,,
PDRGHUMCVRDZLQ-WMZOPIPTSA-N,C[C@]12CCc3c(ccc4cc(O)ccc34)[C@@H]1CCC2=O,-2.368988937,30.0,Reaxys,benzene,c1ccccc1,,,,,,
PDZIFGIQUYFQGK-UHFFFAOYSA-N,O=C1CCCc2c1[nH]c3ccccc23,-0.768892997,20.0,Reaxys,benzene,c1ccccc1,,,,,,
PEGCITODQASXKH-UHFFFAOYSA-N,C[P](=O)(c1ccccc1)c2ccccc2,-0.17839989,24.97,Reaxys,benzene,c1ccccc1,,,,,,
PEJQKHLWXHKKGS-UHFFFAOYSA-N,Cl[P]1(=N[P](=N[P](=N[P](=N1)(Cl)Cl)(Cl)Cl)(Cl)Cl)Cl,-0.392769265,20.0,Reaxys,benzene,c1ccccc1,,,,,,
PEQHIRFAKIASBK-UHFFFAOYSA-N,c1ccc(cc1)C(c2ccccc2)(c3ccccc3)c4ccccc4,-1.602648604,20.0,Reaxys,benzene,c1ccccc1,,,,,,
PEXWJYDPDXUVSV-BQYQJAHWSA-N,C\C(=C/C(O)=O)c1ccccc1,0.015786616,21.0,Reaxys,benzene,c1ccccc1,,,,,,
PEXWJYDPDXUVSV-FPLPWBNLSA-N,C\C(=C\C(O)=O)c1ccccc1,-0.372644955,21.0,Reaxys,benzene,c1ccccc1,,,,,,
PFVCRIULCASTAH-ZMGSENCKSA-N,CC1(C)C2CC[C@@]1(C)C(=O)\C2=C(/O)c3ccccc3,0.105388087,17.0,Reaxys,benzene,c1ccccc1,,,,,,
PJANXHGTPQOBST-VAWYXSNFSA-N,c1ccc(cc1)\C=C\c2ccccc2,-0.246766311,19.0,Reaxys,benzene,c1ccccc1,,,,,,
PJHUABJTDFXYRQ-UHFFFAOYSA-N,[N-]=[N+]=NC(=O)c1ccccc1,0.774785161,20.0,Reaxys,benzene,c1ccccc1,,,,,,
PJYGUOOQKCIMEO-UHFFFAOYSA-N,CCCC(=O)NNC(=O)CCCC(=O)O,-2.30102397,25.0,Reaxys,benzene,c1ccccc1,,,,,,
PLPWYNVDCPPLMM-UHFFFAOYSA-N,Cc1ccc(cc1)N=Nc2ccc(O)cc2,-0.907224384,30.0,Reaxys,benzene,c1ccccc1,,,,,,
POULHZVOKOAJMA-UHFFFAOYSA-N,CCCCCCCCCCCC(O)=O,0.910290571,25.0,Reaxys,benzene,c1ccccc1,,,,,,
PPJVBBJMDLANLB-UHFFFAOYSA-N,[O-][N+](=O)c1ccc(c2c1cccc2[N+]([O-])=O)[N+]([O-])=O,-1.515356338,15.0,Reaxys,benzene,c1ccccc1,,,,,,
PQBRXQUGVASQBU-UHFFFAOYSA-N,Cc1cccc(C=NNc2ccc(cc2[N+]([O-])=O)[N+]([O-])=O)c1,-2.295674141,20.0,Reaxys,benzene,c1ccccc1,,,,,,
PRCOWBGHTCNVDZ-FPLPWBNLSA-N,CCCCCCC=CC(N)=O,0.512299784,20.0,Reaxys,benzene,c1ccccc1,,,,,,
QEIRHBKKYVWAOM-UHFFFAOYSA-N,Oc1ccc(cc1)C(O)(c2ccccc2)c3ccccc3,-1.61750544,20.0,Reaxys,benzene,c1ccccc1,,,,,,
QIGBRXMKCJKVMJ-UHFFFAOYSA-N,Oc1ccc(O)cc1,-2.740804655,,Reaxys,benzene,c1ccccc1,,,,,,
QIJZEVMDXMIRHM-AEMDVCDZSA-N,CCC12SC3SC(S1)SC(CC)(S3)S2,-1.3318306,,Reaxys,benzene,c1ccccc1,,,,,,
QIQXTHQIDYTFRH-UHFFFAOYSA-N,CCCCCCCCCCCCCCCCCC(O)=O,-1.131340971,20.0,Reaxys,benzene,c1ccccc1,,,,,,
QJGNSTCICFBACB-UHFFFAOYSA-N,CCCCCCCCC(C(O)=O)C(O)=O,-3.271932299,25.0,Reaxys,benzene,c1ccccc1,,,,,,
QLCFFBOGHZDLGO-UHFFFAOYSA-N,Clc1ccc2c3ccccc3C(=O)c4cccc1c24,-1.360352472,20.0,Reaxys,benzene,c1ccccc1,,,,,,
QMGVPVSNSZLJIA-FVWCLLPLSA-N,O=C1C[C@@H]2OCC=C3CN4CC[C@@]56[C@@H]4C[C@@H]3[C@@H]2[C@@H]5N1c7ccccc67,-1.700971947,25.0,Reaxys,benzene,c1ccccc1,,,,,,
QPKUOOVISUGIRK-UHFFFAOYSA-N,O=C(c1ccccc1)c2cccc3cccc(C(=O)c4ccccc4)c23,-1.057741262,25.0,Reaxys,benzene,c1ccccc1,,,,,,
QPUHWUSUBHNZCG-UWVGGRQHSA-N,O[C@H]1C=Cc2ccccc2[C@@H]1O,-1.778654954,23.0,Reaxys,benzene,c1ccccc1,,,,,,
QTPSDCFAVWZIJU-UHFFFAOYSA-N,OC1=C(CCCC2CCCCC2)C(=O)c3ccccc3C1=O,-0.655228685,20.0,Reaxys,benzene,c1ccccc1,,,,,,
QTQRHYLAOSURLC-UHFFFAOYSA-N,[O-][N+](=O)c1ccc2c(Cc3cc(Br)ccc23)c1,-2.025217553,18.0,Reaxys,benzene,c1ccccc1,,,,,,
QUVCQYQEIOLHFZ-UHFFFAOYSA-N,CC1(C)Oc2ccc3C=CC(=O)Oc3c2C=C1,-0.009360791,18.0,Reaxys,benzene,c1ccccc1,,,,,,
QYOOZBGIAMCUNQ-UHFFFAOYSA-N,OC1=C(O)C(=O)CCC1,-1.028462801,,Reaxys,benzene,c1ccccc1,,,,,,
QZLYZQUYIQGGOQ-UHFFFAOYSA-N,CCCCCCCCCCCCC(=O)CCCCC(O)=O,-1.599833602,25.0,Reaxys,benzene,c1ccccc1,,,,,,
RBOXVHNMENFORY-DNJOTXNNSA-N,COc1ccc2C[C@@H]3[C@@H]4CC[C@H](O)[C@@H]5Oc1c2[C@]45CCN3C,-0.349532325,20.0,Reaxys,benzene,c1ccccc1,,,,,,
RCNCKKACINZDOI-UHFFFAOYSA-N,Cc1cc(O)cc(O)c1C,-1.622435042,24.9,Reaxys,benzene,c1ccccc1,,,,,,
RCOUWKSZRXJXLA-UHFFFAOYSA-N,CCCC1(CCC)C(=O)NC(=O)NC1=O,-2.066774265,20.0,Reaxys,benzene,c1ccccc1,,,,,,
RJKGJBPXVHTNJL-UHFFFAOYSA-N,[O-][N+](=O)c1cccc2ccccc12,-0.324273039,25.0,Reaxys,benzene,c1ccccc1,,,,,,
RJWYTISHBMNMOZ-UHFFFAOYSA-N,Nc1ccc2c(Cc3cc(Br)ccc23)c1,-1.016759388,18.0,Reaxys,benzene,c1ccccc1,,,,,,
RKUNBYITZUJHSG-SPUOUPEWSA-N,CN1[C@@H]2CC[C@H]1CC(C2)OC(=O)C(CO)c3ccccc3,-0.554508694,15.0,Reaxys,benzene,c1ccccc1,,,,,,
RLHYRFVLZOSXDH-UHFFFAOYSA-N,CC(=O)Oc1ccc(OC(C)=O)c2C(=O)c3ccccc3C(=O)c12,-1.723331411,25.0,Reaxys,benzene,c1ccccc1,,,,,,
RMBFBMJGBANMMK-UHFFFAOYSA-N,Cc1ccc(cc1[N+]([O-])=O)[N+]([O-])=O,0.464896151,15.0,Reaxys,benzene,c1ccccc1,,,,,,
RNBWGWPKGHGLOY-AATRIKPKSA-N,CCOC(=O)\C=C(/C)NC(C)=O,-0.035717002,18.0,Reaxys,benzene,c1ccccc1,,,,,,
RNBWGWPKGHGLOY-WAYWQWQTSA-N,CCOC(=O)/C=C(/C)NC(C)=O,0.371768325,20.0,Reaxys,benzene,c1ccccc1,,,,,,
RNDOMZKEPZZDQT-UHFFFAOYSA-N,CCOC(=O)C(=NNc1ccc2ccccc2c1)C#N,-0.773764165,17.0,Reaxys,benzene,c1ccccc1,,,,,,
RRGUKTPIGVIEKM-UHFFFAOYSA-N,O=C1CCc2cc(OCCCCc3nnnn3C4CCCCC4)ccc2N1,-2.961194289,25.0,Reaxys,benzene,c1ccccc1,,,,,,
RRKTZKIUPZVBMF-IBTVXLQLSA-N,COc1cc2N3[C@H]4[C@@H]5[C@H](CC3=O)OCC=C6CN7CC[C@]4([C@@H]7C[C@H]56)c2cc1OC,-1.374156545,25.0,Reaxys,benzene,c1ccccc1,,,,,,
RTVRUUUUWHGNMM-UHFFFAOYSA-N,CCOC(=O)C(=NNc1ccc(cc1)[N+]([O-])=O)C#N,-1.768599812,18.0,Reaxys,benzene,c1ccccc1,,,,,,
RTZZCYNQPHTPPL-UHFFFAOYSA-N,Oc1cccc(c1)[N+]([O-])=O,-0.748909792,25.0,Reaxys,benzene,c1ccccc1,,,,,,
RYFIDGIWTNANMO-DIVCQZSQSA-N,c1ccc(cc1)[C@]2(c3c(cccc3)[C@](c4c2cccc4)(O)c5ccccc5)O,-2.08450955,17.0,Reaxys,benzene,c1ccccc1,,,,,,
RYYVLZVUVIJVGH-UHFFFAOYSA-N,Cn1cnc2N(C)C(=O)N(C)C(=O)c12,-1.279463121,25.0,Reaxys,benzene,c1ccccc1,,,,,,
RZVAJINKPMORJF-UHFFFAOYSA-N,CC(=O)Nc1ccc(O)cc1,-1.908809846,25.0,Reaxys,benzene,c1ccccc1,,,,,,
RZYNKBXUQOCKSI-UHFFFAOYSA-N,Cc5ccc(N(/C(=N/c1ccccc1)Nc2ccccc2)c4nc3cc(C)ccc3[nH]4)cc5,-1.789426964,15.0,Reaxys,benzene,c1ccccc1,,,,,,
SAMVPMGKGGLIPF-UHFFFAOYSA-N,OC(C(O)=O)c1cccc(Cl)c1,-1.837930711,22.0,Reaxys,benzene,c1ccccc1,,,,,,
SEDZROHEORUIGZ-OQLLNIDSSA-N,C\C(=N/Oc1c(cc(cc1[N+]([O-])=O)[N+]([O-])=O)[N+]([O-])=O)c2ccccc2,-0.211017704,25.0,Reaxys,benzene,c1ccccc1,,,,,,
SFVBWARTAYZWKI-UHFFFAOYSA-N,[O-][N+](=O)c1ccc(NN=Cc2ccc(Br)cc2)c(c1)[N+]([O-])=O,-3.164522971,20.0,Reaxys,benzene,c1ccccc1,,,,,,
SIOXPEMLGUPBBT-UHFFFAOYSA-N,OC(=O)c1ccccn1,-1.488236868,30.0,Reaxys,benzene,c1ccccc1,,,,,,
SIZDUQQDBXJXLQ-JGVFFNPUSA-N,CC(=O)[C@H]1C[C@@H](CC(O)=O)C1(C)C,0.685732139,20.0,Reaxys,benzene,c1ccccc1,,,,,,
SKRVQRQCLHCKBW-UHFFFAOYSA-N,CCCOCN1C(=O)c2ccccc2C1=O,0.057020215,,Reaxys,benzene,c1ccccc1,,,,,,
SLAMLWHELXOEJZ-UHFFFAOYSA-N,OC(=O)c1ccccc1[N+]([O-])=O,-1.78259426,25.0,Reaxys,benzene,c1ccccc1,,,,,,
SLCVBVWXLSEKPL-UHFFFAOYSA-N,CC(C)(CO)CO,-0.568645966,33.5,Reaxys,benzene,c1ccccc1,,,,,,
SLKHRJWWFSTBJC-AXTSPUMRSA-N,Cl[C@H]1[C@H](Cl)[C@@H](Cl)c2ccccc2[C@@H]1Cl,-0.282011262,20.0,Reaxys,benzene,c1ccccc1,,,,,,
SLSUKCXXFCZYMJ-UHFFFAOYSA-N,CSCC12CSCC(C1)C(=CC2=O)C,0.233182798,20.0,Reaxys,benzene,c1ccccc1,,,,,,
SMNDYUVBFMFKNZ-UHFFFAOYSA-N,OC(=O)c1occc1,-0.97019916,24.84,Reaxys,benzene,c1ccccc1,,,,,,
SODJJEXAWOSSON-UHFFFAOYSA-N,COc1ccc(c(O)c1)C(=O)c2ccc(OC)cc2O,-0.779675607,25.0,Reaxys,benzene,c1ccccc1,,,,,,
SSXZWAYXQSKEMV-UHFFFAOYSA-N,Cc1ccc(cc1)C(=O)C=Cc2ccccc2,0.34222424,21.0,Reaxys,benzene,c1ccccc1,,,,,,
STABAPSYCQFWOK-UHFFFAOYSA-N,OOC(=O)c1ccc(Cl)cc1,-0.908580662,20.0,Reaxys,benzene,c1ccccc1,,,,,,
STAOMSFSFGPGFQ-CMDGGOBGSA-N,CC\C(=C/C(O)=O)c1ccccc1,0.344821243,20.0,Reaxys,benzene,c1ccccc1,,,,,,
STAOMSFSFGPGFQ-HJWRWDBZSA-N,CC\C(=C\C(O)=O)c1ccccc1,0.028899692,20.0,Reaxys,benzene,c1ccccc1,,,,,,
SWJPEBQEEAHIGZ-UHFFFAOYSA-N,Brc1ccc(Br)cc1,0.494044405,25.0,Reaxys,benzene,c1ccccc1,,,,,,
SXWIAEOZZQADEY-UHFFFAOYSA-N,c1ccc(cc1)c2cc(cc(c2)c3ccccc3)c4ccccc4,-0.286505123,20.0,Reaxys,benzene,c1ccccc1,,,,,,
SYBUTYMIJPIFDK-UHFFFAOYSA-N,CCCCC(CCCC)(CCCC)C(=O)NO,-1.119177956,26.0,Reaxys,benzene,c1ccccc1,,,,,,
SZPCSERRBCRIJE-UHFFFAOYSA-N,c1ccc2c(c1)c3c4cccc5cccc(c45)c6c7ccccc7c8c9cccc%10cccc(c9%10)c2c8c36,-1.408933126,20.0,Reaxys,benzene,c1ccccc1,,,,,,
SZUJLGRGMJYCTC-SAPNQHFASA-N,N#C/C(c1ccccc1)=N(=O)/c2cccc(Cl)c2,-0.774933372,19.0,Reaxys,benzene,c1ccccc1,,,,,,
TUNFSRHWOTWDNC-UHFFFAOYSA-N,CCCCCCCCCCCCCC(O)=O,0.049238397,20.0,Reaxys,benzene,c1ccccc1,,,,,,
TUXYZHVUPGXXQG-UHFFFAOYSA-N,OC(=O)c1ccc(Br)cc1,-2.769211002,20.0,Reaxys,benzene,c1ccccc1,,,,,,
TXPIFPRFLHLZFE-OVCLIPMQSA-N,[O-][N+](=O)c1ccc(N/N=C/c2ccc(I)cc2)c(c1)[N+]([O-])=O,-3.035264331,20.0,Reaxys,benzene,c1ccccc1,,,,,,
TYMLOMAKGOJONV-UHFFFAOYSA-N,Nc1ccc(cc1)[N+]([O-])=O,-1.415999566,25.0,Reaxys,benzene,c1ccccc1,,,,,,
UATJOMSPNYCXIX-UHFFFAOYSA-N,[O-][N+](=O)c1cc(cc(c1)[N+]([O-])=O)[N+]([O-])=O,-0.595103096,17.0,Reaxys,benzene,c1ccccc1,,,,,,
UBIJTWDKTYCPMQ-UHFFFAOYSA-N,Cl[P]1(=N[P](=N[P](=N1)(Cl)Cl)(Cl)Cl)Cl,-0.108690891,20.0,Reaxys,benzene,c1ccccc1,,,,,,
UBNOUEFUWQCVFM-KTKRTIGZSA-N,CCCCCCCC\C=C/C(N)=O,-0.175447737,20.0,Reaxys,benzene,c1ccccc1,,,,,,
UBNOUEFUWQCVFM-MDZDMXLPSA-N,CCCCCCCC/C=C/C(N)=O,-1.843522888,20.0,Reaxys,benzene,c1ccccc1,,,,,,
UCAHGXFXBRSTPX-UHFFFAOYSA-N,[O-][N+](=O)c1ccc(Oc2c(cc(cc2[N+]([O-])=O)[N+]([O-])=O)[N+]([O-])=O)c(c1)[N+]([O-])=O,-1.930035861,23.0,Reaxys,benzene,c1ccccc1,,,,,,
UCZJPQIEFFTIEV-UHFFFAOYSA-N,COC1=C(C)C(=O)C=C2OC(=CC=C12)c3ccccc3,-1.881296599,18.0,Reaxys,benzene,c1ccccc1,,,,,,
UDBJDRBHDDMKDQ-UHFFFAOYSA-N,OC(=O)C(O)(CCl)c1ccccc1,-1.770899639,18.0,Reaxys,benzene,c1ccccc1,,,,,,
UDTWZFJEMMUFLC-NSHDSACASA-N,CC[C@]1(NC(=O)NC1=O)c2ccccc2,-3.009085289,24.0,Reaxys,benzene,c1ccccc1,,,,,,
UFBFHOIDTILMDS-MXVIHJGJSA-N,OC(=O)[C@@H]1c2ccccc2[C@@H](C(=O)c3ccccc3)c4ccccc14,-1.641298242,20.0,Reaxys,benzene,c1ccccc1,,,,,,
UFBJCMHMOXMLKC-UHFFFAOYSA-N,Oc1ccc(cc1[N+]([O-])=O)[N+]([O-])=O,-0.51638858,15.0,Reaxys,benzene,c1ccccc1,,,,,,
UHWJMXASZSKFEO-UHFFFAOYSA-N,[O-][N+](=O)c1ccc(Nc2ccc(cc2[N+]([O-])=O)[N+]([O-])=O)c(c1)[N+]([O-])=O,-2.095440049,15.0,Reaxys,benzene,c1ccccc1,,,,,,
UJHIVOCEDKLHRM-UHFFFAOYSA-N,CCOC(=O)c1ccc(NC(C)=O)cc1C,-0.703420946,20.0,Reaxys,benzene,c1ccccc1,,,,,,
UJOBWOGCFQCDNV-UHFFFAOYSA-N,[nH]1c2ccccc2c3ccccc13,-1.435660101,15.5,Reaxys,benzene,c1ccccc1,,,,,,
UKFXDFUAPNAMPJ-UHFFFAOYSA-N,CCC(C(O)=O)C(O)=O,-3.002360051,,Reaxys,benzene,c1ccccc1,,,,,,
UMVOQQDNEYOJOK-UHFFFAOYSA-N,Cc1cc(C)cc(c1)C(O)=O,-0.862736204,20.0,Reaxys,benzene,c1ccccc1,,,,,,
UNMSQGCYXOMOAC-UHFFFAOYSA-N,[O-][N+](=O)OCCN(c1c(cc(cc1[N+]([O-])=O)[N+]([O-])=O)[N+]([O-])=O)[N+]([O-])=O,-1.771309128,25.0,Reaxys,benzene,c1ccccc1,,,,,,
UPFSMSDGKQSRLD-UHFFFAOYSA-N,CCCCCCC(C(O)=O)C(O)=O,-1.846449466,,Reaxys,benzene,c1ccccc1,,,,,,
UROTXSKVENIXIY-UHFFFAOYSA-N,Oc1ccc(cc1)N=Nc2ccccc2Cl,-0.24525747,30.0,Reaxys,benzene,c1ccccc1,,,,,,
UTMLDQRMPCLKEF-UHFFFAOYSA-N,CN(C)c1ccc(cc1)C(=Nc2ccc(N)cc2)c3ccc(cc3)N(C)C,-1.364140502,20.0,Reaxys,benzene,c1ccccc1,,,,,,
UUIFLJWUCFHTEW-UHFFFAOYSA-N,CCC1CCCCC1OC(=O)c2ccccc2C(=O)O,-0.156504393,17.0,Reaxys,benzene,c1ccccc1,,,,,,
UWKOOOMCKYNLFU-UHFFFAOYSA-N,Oc1ccc(cc1Cl)N=Nc2ccccc2,-0.063451727,30.0,Reaxys,benzene,c1ccccc1,,,,,,
UWTDXUCLTQHOJU-FPLPWBNLSA-N,COc1ccccc1C(/C)=C\C(O)=O,-0.427467058,21.0,Reaxys,benzene,c1ccccc1,,,,,,
UXYRZRFBRUPVBU-UHFFFAOYSA-N,C(C=CC=CC=Cc1ccccc1)=CC=CC=Cc2ccccc2,-3.713825025,19.0,Reaxys,benzene,c1ccccc1,,,,,,
UYIFTLBWAOGQBI-BZDYCCQFSA-N,C[C@]12CC[C@H]3[C@@H](CCc4cc(OC(=O)c5ccccc5)ccc34)[C@@H]1CC[C@@H]2O,-1.098639112,20.0,Reaxys,benzene,c1ccccc1,,,,,,
VAOCPAMSLUNLGC-UHFFFAOYSA-N,Cc1ncc(n1CCO)[N+]([O-])=O,-0.187076494,25.0,Reaxys,benzene,c1ccccc1,,,,,,
VBURFXNYFZMQOV-UHFFFAOYSA-N,Nc1cccc(C=NNc2ccc(cc2[N+]([O-])=O)[N+]([O-])=O)c1,-3.364999561,,Reaxys,benzene,c1ccccc1,,,,,,
VDXTZTHFZIKUCY-UHFFFAOYSA-N,Cc1cc2C(=O)c3ccccc3c4c2c(c1)c5cc(C)cc6C(=O)c7ccccc7c4c56,-3.334529936,23.0,Reaxys,benzene,c1ccccc1,,,,,,
VFZDNKRDYPTSTP-QUBYGPBYSA-N,CC1(C)[C@H]2CC[C@]1(C)C(=O)OC2=O,-0.52151522,20.0,Reaxys,benzene,c1ccccc1,,,,,,
VGMJYYDKPUPTID-UHFFFAOYSA-N,CCc1ccc(O)cc1O,-1.138024757,24.9,Reaxys,benzene,c1ccccc1,,,,,,
VKCNNDPZFOVURD-SECBINFHSA-N,C[C@@H](C(O)=O)c1cccc2ccccc12,0.331421669,25.0,Reaxys,benzene,c1ccccc1,,,,,,
VKYKSIONXSXAKP-UHFFFAOYSA-N,C1N2CN3CN1CN(C2)C3,-1.842478898,20.0,Reaxys,benzene,c1ccccc1,,,,,,
VMTOMMQSWIGTKJ-SAPNQHFASA-N,N#C/C(c1ccccc1)=N(=O)/c2ccccc2Cl,-0.537254369,19.0,Reaxys,benzene,c1ccccc1,,,,,,
VOGKEZAPBBRLPB-UHFFFAOYSA-N,CCCCCCC(CCC)(CCC)C(=O)NO,-0.610830638,26.0,Reaxys,benzene,c1ccccc1,,,,,,
VOIZNVUXCQLQHS-UHFFFAOYSA-N,OC(=O)c1cccc(Br)c1,-1.129002803,20.0,Reaxys,benzene,c1ccccc1,,,,,,
VOXZDWNPVJITMN-ZBRFXRBCSA-N,C[C@]12CC[C@H]3[C@@H](CCc4cc(O)ccc34)[C@@H]1CC[C@@H]2O,-2.760288511,30.0,Reaxys,benzene,c1ccccc1,,,,,,
VQDJODAWOFNASI-UHFFFAOYSA-N,CCCC(C(O)=O)C(O)=O,-2.506270568,25.0,Reaxys,benzene,c1ccccc1,,,,,,
VRFDFWYTHFTWQA-UHFFFAOYSA-N,OC(C(N=[N+]=[N-])c1ccccc1)C(O)=O,-0.520486677,,Reaxys,benzene,c1ccccc1,,,,,,
VUDZRNXTJQCBKO-UHFFFAOYSA-N,NC(=O)C(Br)(Br)Cc1ccccc1,-1.009995901,,Reaxys,benzene,c1ccccc1,,,,,,
VUGBXRWVNRCWIQ-UHFFFAOYSA-N,COc1ccccc1N=Nc2ccc(O)cc2,-1.374513995,30.0,Reaxys,benzene,c1ccccc1,,,,,,
VVHZACUTABVSIH-WUKNDPDISA-N,CC(=O)c1ccc(cc1)N=Nc2cc(Cl)ccc2O,-1.088125655,30.0,Reaxys,benzene,c1ccccc1,,,,,,
VYWYYJYRVSBHJQ-UHFFFAOYSA-N,OC(=O)c1cc(cc(c1)[N+]([O-])=O)[N+]([O-])=O,-2.369076072,25.0,Reaxys,benzene,c1ccccc1,,,,,,
VZCYOOQTPOCHFL-UPHRSURJSA-N,OC(=O)\C=C/C(O)=O,-2.742015861,25.0,Reaxys,benzene,c1ccccc1,,,,,,
WBYWAXJHAXSJNI-VOTSOKGWSA-N,OC(=O)\C=C\c1ccccc1,-1.056790548,,Reaxys,benzene,c1ccccc1,,,,,,
WDECIBYCCFPHNR-UHFFFAOYSA-N,c1ccc2c(c1)ccc3c4ccccc4ccc23,-1.769556786,20.0,Reaxys,benzene,c1ccccc1,,,,,,
WDZGGAFMGIOIQS-DHZHZOJOSA-N,[O-][N+](=O)c1ccc(/C=C/C(=O)c2ccccc2)cc1,-1.251793355,26.0,Reaxys,benzene,c1ccccc1,,,,,,
WEFGJDSWBHPXOK-UHFFFAOYSA-N,COc1ccc(cc1)N=Nc2ccc(O)cc2,-1.095760394,30.0,Reaxys,benzene,c1ccccc1,,,,,,
WIWBHSNVCVVVOB-UZYVYHOESA-N,CCCCc1ccc(cc1)\C(=N\Nc2ccc(C)cc2)C(O)=O,-0.508019325,20.0,Reaxys,benzene,c1ccccc1,,,,,,
WJFKNYWRSNBZNX-UHFFFAOYSA-N,N1c2ccccc2Sc3ccccc13,-0.812316622,20.0,Reaxys,benzene,c1ccccc1,,,,,,
WLJVNTCWHIRURA-UHFFFAOYSA-N,OC(=O)CCCCCC(O)=O,-2.963223993,25.0,Reaxys,benzene,c1ccccc1,,,,,,
WLWFNJKHKGIJNW-UHFFFAOYSA-N,CN1C(=O)CC(C1=O)c2ccccc2,0.665550839,25.0,Reaxys,benzene,c1ccccc1,,,,,,
WMRCTEPOPAZMMN-UHFFFAOYSA-N,CCCCCCCCCCCC(C(O)=O)C(O)=O,-3.326703008,25.0,Reaxys,benzene,c1ccccc1,,,,,,
WOIGZSBYKGQJGL-UHFFFAOYSA-N,C=CCC1(C(=O)NC(=O)NC1=O)c2ccccc2,-2.126571704,20.0,Reaxys,benzene,c1ccccc1,,,,,,
WPYMKLBDIGXBTP-UHFFFAOYSA-N,OC(=O)c1ccccc1,-0.12610793,25.0,Reaxys,benzene,c1ccccc1,,,,,,
WQGWDDDVZFFDIG-UHFFFAOYSA-N,Oc1cccc(O)c1O,-2.237086256,25.0,Reaxys,benzene,c1ccccc1,,,,,,
WQWMWDWQMVRGRP-UHFFFAOYSA-N,Cc1cc(C)c(CC(C)(C)C(=O)NO)c(C)c1,-1.657591748,26.0,Reaxys,benzene,c1ccccc1,,,,,,
WSEJSEYNXSBBRS-UHFFFAOYSA-N,CCCCCCCC=NNC(N)=O,-0.23841898,20.0,Reaxys,benzene,c1ccccc1,,,,,,
WTYGAUXICFETTC-UHFFFAOYSA-N,CCC1(C(=O)NC(=O)NC1=O)C2=CCCCC2,-1.955109128,20.0,Reaxys,benzene,c1ccccc1,,,,,,
WULPUQZASCZTPO-UHFFFAOYSA-N,O=C1CCCCCCCCCN1,-1.076283953,22.0,Reaxys,benzene,c1ccccc1,,,,,,
WURBFLDFSFBTLW-UHFFFAOYSA-N,O=C(c1ccccc1)C(=O)c2ccccc2,0.390657296,25.0,Reaxys,benzene,c1ccccc1,,,,,,
WWWHYESRWDHLIX-PEZBUJJGSA-N,[O-][N+](c1ccccc1)=C(C#N)c2ccccc2,-0.498644836,21.0,Reaxys,benzene,c1ccccc1,,,,,,
XCDXSSFOJZZGQC-UHFFFAOYSA-N,ClCCN(CCCl)c1ccc2ccccc2c1,0.474653884,15.0,Reaxys,benzene,c1ccccc1,,,,,,
XDOBGTROEORTFM-UHFFFAOYSA-N,CN(C)c1ccc(cc1)C(=NC(=O)c2ccccc2)c3ccc(cc3)N(C)C,-1.603796042,16.0,Reaxys,benzene,c1ccccc1,,,,,,
XECWCIGULVRDKS-UHFFFAOYSA-N,OC(C=CC(O)(c1ccccc1)c2ccccc2)(c3ccccc3)c4ccccc4,-3.398479204,24.0,Reaxys,benzene,c1ccccc1,,,,,,
XHKBEIYZVFBVAM-UHFFFAOYSA-N,CCCCCCCCCCCCCC(=O)NO,-1.15490196,26.0,Reaxys,benzene,c1ccccc1,,,,,,
XJCVRTZCHMZPBD-UHFFFAOYSA-N,Nc1cccc(c1)[N+]([O-])=O,-0.807836975,25.0,Reaxys,benzene,c1ccccc1,,,,,,
XJHDMGJURBVLLE-BOCCBSBMSA-N,C[C@H]1[C@@H]2CC[C@@]3(C)C=CC(=O)C(=C3[C@H]2OC1=O)C,-0.730469196,20.0,Reaxys,benzene,c1ccccc1,,,,,,
XJKSTNDFUHDPQJ-UHFFFAOYSA-N,c1ccc(cc1)c2ccc(cc2)c3ccccc3,-1.244122266,20.0,Reaxys,benzene,c1ccccc1,,,,,,
XLAJFSRYFUHAPW-UHFFFAOYSA-N,[O-][N+](=O)c1cc(c(c(c1)[N+]([O-])=O)[N+]([O-])=O)[N+]([O-])=O,-1.109455147,23.0,Reaxys,benzene,c1ccccc1,,,,,,
XMTQQYYKAHVGBJ-UHFFFAOYSA-N,CN(C)C(=O)Nc1ccc(Cl)c(Cl)c1,-2.499875251,25.0,Reaxys,benzene,c1ccccc1,,,,,,
XPTKCHZHKMVCSX-WUKNDPDISA-N,CCc1c(N=Nc2ccccc2O)c(O)cc(C)c1c3ccccc3,0.477141134,30.0,Reaxys,benzene,c1ccccc1,,,,,,
XRHGYUZYPHTUJZ-UHFFFAOYSA-N,OC(=O)c1ccc(Cl)cc1,-2.470429908,20.0,Reaxys,benzene,c1ccccc1,,,,,,
XRTGYBHBFOYLOB-UHFFFAOYSA-N,OC(CCC(O)(c1ccccc1)c2ccccc2)(c3ccccc3)c4ccccc4,-3.109489168,,Reaxys,benzene,c1ccccc1,,,,,,
XRXMNWGCKISMOH-UHFFFAOYSA-N,OC(=O)c1ccccc1Br,-1.265213368,20.0,Reaxys,benzene,c1ccccc1,,,,,,
XSFBJOCBRNOCCE-VYDXJSESSA-N,CC1(C)C2CC[C@@]1(C)C(C2)N=Cc3ccccc3,-1.080538556,,Reaxys,benzene,c1ccccc1,,,,,,
XUWHAWMETYGRKB-UHFFFAOYSA-N,O=C1CCCCN1,0.90774067,22.0,Reaxys,benzene,c1ccccc1,,,,,,
XVBIIFGQJLUPRR-UHFFFAOYSA-N,CCOC(=O)C(=NNc1ccccc1[N+]([O-])=O)C#N,-0.498903775,18.0,Reaxys,benzene,c1ccccc1,,,,,,
XVLCHDINOZBBPB-UHFFFAOYSA-N,CCOc1nc2nc(Cl)nc(Cl)c2n1C,-0.392844623,,Reaxys,benzene,c1ccccc1,,,,,,
YAOUORFQUQWGHU-CLFYSBASSA-N,c1(ccc(cc1)/C(=C\C(=O)O)/C)C,-0.231656761,20.0,Reaxys,benzene,c1ccccc1,,,,,,
YAOUORFQUQWGHU-VQHVLOKHSA-N,Cc1ccc(cc1)C(/C)=C/C(O)=O,-0.88856542,20.0,Reaxys,benzene,c1ccccc1,,,,,,
YDCFNPFXXJRYCZ-UHFFFAOYSA-N,[O-][N+](=O)c1cc(c(C(=O)N=[N+]=[N-])c(c1)[N+]([O-])=O)[N+]([O-])=O,-1.507943623,20.0,Reaxys,benzene,c1ccccc1,,,,,,
YDLSUFFXJYEVHW-UHFFFAOYSA-N,O=C1CCCCCCCN1,0.365336625,22.0,Reaxys,benzene,c1ccccc1,,,,,,
YGPLLMPPZRUGTJ-UHFFFAOYSA-N,C1c2ccccc2c3c1c4c(Cc5ccccc45)c6c3Cc7ccccc67,-2.978281988,20.0,Reaxys,benzene,c1ccccc1,,,,,,