StdInChIKey,SMILES,LogS,T,Source,Solvent,Solvent_SMILES,Smilesa,REF1,REF2,REF3,REF4,REF5
VMFZFBNQMGFEJG-UHFFFAOYSA-N,CC(=O)N(c1ccc(cc1)N(C)C)C(=O)Nc1ccc(cc1)N(C)C,-2.593386658,20.0,Reaxys,ethanol,CCO,,,,,,
VMXIGXJWVNCMDE-UHFFFAOYSA-N,c1ccc(cc1)CCOC(=O)NC(=O)N,-2.415426198,17.0,Reaxys,ethanol,CCO,,,,,,
VNIRPUMAEZAXLI-UHFFFAOYSA-N,CC(=CC(C(Cl)(Cl)Cl)O)C,0.39824594,20.0,Reaxys,ethanol,CCO,,,,,,
VNMCOCQBDAFDIY-UHFFFAOYSA-N,CCCCCCC(C)OC(=O)NC(=O)N,-2.025386193,14.0,Reaxys,ethanol,CCO,,,,,,
VOGKEZAPBBRLPB-UHFFFAOYSA-N,CCCCCCC(CCC)(CCC)C(=O)NO,0.0,26.0,Reaxys,ethanol,CCO,,,,,,
VOIZNVUXCQLQHS-UHFFFAOYSA-N,c1cc(cc(c1)Br)C(=O)O,-0.438898118,25.0,Reaxys,ethanol,CCO,,,,,,
VPVXHAANQNHFSF-UHFFFAOYSA-N,C1COC(=O)CO1,0.845689016,15.2,Reaxys,ethanol,CCO,,,,,,
VWPOSFSPZNDTMJ-UCWKZMIHSA-N,CC(C)(C)NCC(COc1cccc2C[C@H]([C@H](Cc12)O)O)O,-0.799447239,23.0,Reaxys,ethanol,CCO,,,,,,
VXDRVFNPIUKYNB-UHFFFAOYSA-N,CC(C)C1CCC(C)CC1OC(=O)NC(=O)N,-2.23825764,18.0,Reaxys,ethanol,CCO,,,,,,
VXLFYNFOITWQPM-QZQOTICOSA-N,c1ccc(cc1)Nc1ccc(cc1)N=Nc1ccccc1,0.0681909,25.0,Reaxys,ethanol,CCO,,,,,,
WBJRVFHVKHVZOM-ISLYRVAYSA-N,COC(=O)c1ccc(cc1)N=Nc1ccc(cc1N)N,-1.940469891,25.0,Reaxys,ethanol,CCO,,,,,,
WCBBGYBHNLCJSJ-UHFFFAOYSA-N,C1(C(Cl)(Cl)Cl)OC(C(Cl)(Cl)Cl)OC(C(Cl)(Cl)Cl)O1,-1.955388283,25.0,Reaxys,ethanol,CCO,,,,,,
WCGUUGGRBIKTOS-GPOJBZKASA-N,C[C@@H]1CC[C@@]2(CC[C@]3(C)C(=CC[C@@H]4[C@@]5(C)CC[C@@H](C(C)(C)[C@@H]5CC[C@@]34C)O)[C@@H]2[C@H]1C)C(=O)O,-2.091437846,18.0,Reaxys,ethanol,CCO,,,,,,
WCNBDOGHDLNLCX-UHFFFAOYSA-N,c1cc2c3ccc(cc3C(c2cc1Cl)O)N,-1.467648316,18.0,Reaxys,ethanol,CCO,,,,,,
WDENQIQQYWYTPO-IBGZPJMESA-N,CC#CC(=O)N1CCC[C@H]1c1nc(c2ccc(cc2)C(=O)Nc2ccccn2)c2c(N)nccn12,-2.190811492,25.0,Reaxys,ethanol,CCO,,,,,,
WDZGGAFMGIOIQS-DHZHZOJOSA-N,c1ccc(cc1)C(=O)/C=C/c1ccc(cc1)[N+](=O)[O-],-2.312598381,26.0,Reaxys,ethanol,CCO,,,,,,
WIASIBZCNZVRJK-UHFFFAOYSA-N,C1CCC(CC1)N(C(=O)C1CCC1)O,-0.121328008,25.0,Reaxys,ethanol,CCO,,,,,,
WIWBHSNVCVVVOB-DYTRJAOYSA-N,CCCCc1ccc(cc1)/C(=N\Nc1ccc(C)cc1)/C(=O)O,-1.050605969,20.0,Reaxys,ethanol,CCO,,,,,,
WJCNZQLZVWNLKY-UHFFFAOYSA-N,c1ccc2c(c1)[nH]c(c1cscn1)n2,-2.164398831,25.0,Reaxys,ethanol,CCO,,,,,,
WJFKNYWRSNBZNX-UHFFFAOYSA-N,c1ccc2c(c1)Nc1ccccc1S2,-1.039383609,20.0,Reaxys,ethanol,CCO,,,,,,
WJHSRFQBVYHKKL-CMWLGVBASA-N,c1cc(c(cc1c1coc2cc(cc(c2c1=O)O)O[C@H]1[C@@H]([C@H]([C@@H]([C@@H](CO)O1)O)O)O)O)O,-3.07662633,18.0,Reaxys,ethanol,CCO,,,,,,
WJTFHWXMITZNHS-UHFFFAOYSA-N,c1cc(Br)oc1C=O,-0.544023372,20.0,Reaxys,ethanol,CCO,,,,,,
WLJVNTCWHIRURA-UHFFFAOYSA-N,C(CCC(=O)O)CCC(=O)O,0.315608112,25.29,Reaxys,ethanol,CCO,,,,,,
WNLRTRBMVRJNCN-UHFFFAOYSA-N,C(CCC(=O)O)CC(=O)O,-0.215388012,25.0,Reaxys,ethanol,CCO,,,,,,
WNYIBZHOMJZDKN-UHFFFAOYSA-N,CC(=O)NCCNC(=O)C,-0.04161264,25.0,Reaxys,ethanol,CCO,,,,,,
WOUBWJAJSXAOIV-UHFFFAOYSA-N,c1cc(ccc1S(=O)(=O)N)S(=O)(=O)N,-1.771354104,25.0,Reaxys,ethanol,CCO,,,,,,
WOZSCQDILHKSGG-UHFFFAOYSA-N,CC(C)(C)C(=O)OCOP(=O)(COCCn1cnc2c(N)ncnc12)OCOC(=O)C(C)(C)C,-0.233704444,24.99,Reaxys,ethanol,CCO,,,,,,
WPXZZUDRJPGPTR-FMQUCBEESA-N,CCCOC(=O)c1ccc(cc1)N=Nc1ccc(cc1N)N,-1.481282533,25.0,Reaxys,ethanol,CCO,,,,,,
WPYMKLBDIGXBTP-UHFFFAOYSA-N,c1ccc(cc1)C(=O)O,0.4390219,24.9,Reaxys,ethanol,CCO,,,,,,
WQZGKKKJIJFFOK-QTVWNMPRSA-N,C([C@@H]1[C@H]([C@@H]([C@@H](C(O)O1)O)O)O)O,-1.224872541,25.0,Reaxys,ethanol,CCO,,,,,,
WRMHSUWVRRMXIN-UHFFFAOYSA-N,c1ccc(cc1)C(CC(=O)c1ccccc1)C(C#N)c1ccc(cc1)[N+](=O)[O-],-2.346744758,20.0,Reaxys,ethanol,CCO,,,,,,
WSWDNKINQWKQGR-OGLKEZPNSA-N,CCCCCCCCCCCCCCCC(=O)O[C@H]1CO[C@@H](c2ccccc2)OC1,-1.378778812,26.0,Reaxys,ethanol,CCO,,,,,,
WUPFRVISYZBSJJ-UHFFFAOYSA-N,CCCCCCCC(=O)N(c1ccc(cc1)N(C)C)C(=O)Nc1ccc(cc1)N(C)C,-2.554632308,20.0,Reaxys,ethanol,CCO,,,,,,
WURBFLDFSFBTLW-UHFFFAOYSA-N,c1ccc(cc1)C(=O)C(=O)c1ccccc1,-0.73614786,25.0,Reaxys,ethanol,CCO,,,,,,
WWNULGCYTYKNHX-RPZUVYPISA-N,C1CCC2C(C1)C1CC2NC2CCCC(NC3CC(C4CCCCC34)NC3CCCC(C3)N1)N2,-2.756964929,20.0,Reaxys,ethanol,CCO,,,,,,
WXUSZELTMZPETG-MHFDELKKSA-N,C[C@H](CCC(=O)O)[C@H]1CC[C@H]2[C@H]3[C@H](CC(=O)[C@]12C)[C@@](C)(CCC(=O)O)[C@H](CC3=O)C(=O)O,-0.709240079,23.0,Reaxys,ethanol,CCO,,,,,,
WZSCKTIRIGZORS-VOTSOKGWSA-N,C/C=C/CCCCCCCC(=O)N(c1ccc(cc1)N(C)C)C(=O)Nc1ccc(cc1)N(C)C,-2.491131172,20.0,Reaxys,ethanol,CCO,,,,,,
XBCAPQKDLLQKQB-UHFFFAOYSA-N,c1ccc(cc1)C(c1ccc(cc1)Cl)(C(c1ccccc1)(c1ccc(cc1)Cl)O)O,-2.638838549,25.0,Reaxys,ethanol,CCO,,,,,,
XCDXSSFOJZZGQC-UHFFFAOYSA-N,c1ccc2cc(ccc2c1)N(CCCl)CCCl,-0.923286124,15.0,Reaxys,ethanol,CCO,,,,,,
XDOBGTROEORTFM-UHFFFAOYSA-N,CN(C)c1ccc(cc1)C(=NC(=O)c1ccccc1)c1ccc(cc1)N(C)C,-2.365817792,16.0,Reaxys,ethanol,CCO,,,,,,
XECWCIGULVRDKS-UHFFFAOYSA-N,c1ccc(cc1)C(C=CC(c1ccccc1)(c1ccccc1)O)(c1ccccc1)O,-1.714775632,24.0,Reaxys,ethanol,CCO,,,,,,
XEFQLINVKFYRCS-UHFFFAOYSA-N,c1cc(c(cc1Cl)Cl)Oc1ccc(cc1O)Cl,0.885787518,24.99,Reaxys,ethanol,CCO,,,,,,
XENLSUWTYBHJFY-UHFFFAOYSA-N,CCCCCCCCCCCCOC(=O)NC(=O)N,-2.98802994,20.7,Reaxys,ethanol,CCO,,,,,,
XEOQHVVLXIUVHB-UHFFFAOYSA-N,CC(C)C1CCC(C)CC1OC(=O)C(c1ccccc1)O,-0.613450986,25.0,Reaxys,ethanol,CCO,,,,,,
XGISLVMWAFEKFQ-OCAPTIKFSA-N,O=[S]1CC[S](=O)CC1,-0.828414631,22.0,Reaxys,ethanol,CCO,,,,,,
XGNHEICZCRPVHP-UHFFFAOYSA-N,c1ccc2c(c1)OP1(=nP3(=nP4(=n1)Oc1ccccc1O4)Oc1ccccc1O3)O2,-2.687057915,24.89,Reaxys,ethanol,CCO,,,,,,
XGVHRUPAYMKJBO-UHFFFAOYSA-N,CCCCCC1(CCO)C(=O)NC(=S)NC1=O,-0.128941292,25.0,Reaxys,ethanol,CCO,,,,,,
XHDCBMMILVHZTB-CYYJNZCTSA-N,Cc1cc(ccc1/N=N/c1ccc(cc1)N(c1ccccc1)c1ccccc1)N(=O)=O,-2.826812954,25.0,Reaxys,ethanol,CCO,,,,,,
XHKBEIYZVFBVAM-UHFFFAOYSA-N,CCCCCCCCCCCCCC(=O)NO,-1.0,26.0,Reaxys,ethanol,CCO,,,,,,
XLWKIQKOAXZPLJ-UHFFFAOYSA-N,CC(=CC(=O)N(c1ccc(cc1)N(C)C)C(=O)Nc1ccc(cc1)N(C)C)C,-2.569157792,20.0,Reaxys,ethanol,CCO,,,,,,
XMHSYEXULJEECF-UHFFFAOYSA-N,COc1ccc(cc1)COC(=O)NC(=O)N,-2.505568561,17.0,Reaxys,ethanol,CCO,,,,,,
XMMRNCHTDONGRJ-UHFFFAOYSA-N,c1cc(ccc1C=CC(=O)O)[N+](=O)[O-],-2.299143214,25.0,Reaxys,ethanol,CCO,,,,,,
XNCQWROGWIOIDE-UHFFFAOYSA-N,Cc1cc(cc(c1OCC(=O)Nc1ccccc1)Cl)Cl,-0.973099852,25.0,Reaxys,ethanol,CCO,,,,,,
XPOFTPYDSZJRKX-VOVZHTNUSA-N,CC(=O)[C@@]12[C@@H](C[C@H]3[C@@H]4CCC5=CC(=O)CC[C@]5(C)[C@H]4[C@@H](C[C@]13C)O)O2,-1.866310262,25.05,Reaxys,ethanol,CCO,,,,,,
XQQFQCNVJHSEHB-UHFFFAOYSA-N,Cc1ccc(cc1)S(=O)(=O)NNC(=O)C(c1ccccc1)(c1ccccc1)O,-1.457699002,21.0,Reaxys,ethanol,CCO,,,,,,
XRHGYUZYPHTUJZ-UHFFFAOYSA-N,c1cc(ccc1C(=O)O)Cl,-0.538348802,25.0,Reaxys,ethanol,CCO,,,,,,
XSTCQMIXQXXYCY-UHFFFAOYSA-N,CC(C)(O)P1(=O)OCC2(CO1)COP(=O)(C(C)(C)O)OC2,-1.501169197,24.47,Reaxys,ethanol,CCO,,,,,,
XUGISPSHIFXEHZ-VEVYEIKRSA-N,CC(C)CCC[C@@H](C)[C@H]1CC[C@H]2[C@@H]3CC=C4C[C@H](CC[C@]4(C)[C@H]3CC[C@]12C)OC(=O)C,-1.933182466,20.0,Reaxys,ethanol,CCO,,,,,,
XXVXIPPJGSLKSX-UHFFFAOYSA-N,C(CCCNC(=O)OCCCCO)CCNC(=O)OCCCCO,-0.809734245,20.0,Reaxys,ethanol,CCO,,,,,,
XYPACLZTPMHPLB-UHFFFAOYSA-N,Cc1ccc2c(ccc(c2n1)O)[N+](=O)[O-],-1.910350113,20.0,Reaxys,ethanol,CCO,,,,,,
XYUFQWDLRLHUPB-UHFFFAOYSA-N,CC(C)(C)c1ccc(cc1)C(=O)NN,0.137054209,25.0,Reaxys,ethanol,CCO,,,,,,
XYYVYLMBEZUESM-CMKMFDCUSA-N,CN1CC[C@]23[C@H]4C=CC(=O)[C@@H]3Oc3c(ccc(C[C@@H]14)c23)OC,-2.242824864,20.0,Reaxys,ethanol,CCO,,,,,,
XZPBDSRFFBZMOL-UHFFFAOYSA-N,CCCC(C)(C)OC(=O)NC(=O)N,-0.894470679,16.0,Reaxys,ethanol,CCO,,,,,,
XZYCIROALNOXCY-UHFFFAOYSA-N,c1ccc(cc1)C(c1ccccc1Cl)(C(c1ccccc1)(c1ccccc1Cl)O)O,-3.258627307,25.0,Reaxys,ethanol,CCO,,,,,,
XZZNDPSIHUTMOC-UHFFFAOYSA-N,c1ccc(cc1)OP(=O)(Oc1ccccc1)Oc1ccccc1,0.333971557,25.0,Reaxys,ethanol,CCO,,,,,,
YAPQBXQYLJRXSA-UHFFFAOYSA-N,Cn1cnc2c1c(=O)[nH]c(=O)n2C,-2.602460323,21.0,Reaxys,ethanol,CCO,,,,,,
YAXHKYDUTPKQCQ-AVPQAVFTSA-N,CCCC(=Cc1ccco1)C=NNC(=O)N,-0.946268355,22.0,Reaxys,ethanol,CCO,,,,,,
YCBSMEKEDOHEQI-UHFFFAOYSA-N,CC1CCC2(CCC3(C)C(=CCC4C5(C)CCC(C(C)(C)C5CCC34C)O)C2C1C)C(=O)OC,-0.951626569,15.0,Reaxys,ethanol,CCO,,,,,,
YDCFNPFXXJRYCZ-UHFFFAOYSA-N,c1c(cc(c(c1[N+](=O)[O-])C(=O)N=[N+]=[N-])[N+](=O)[O-])[N+](=O)[O-],-2.854235622,20.0,Reaxys,ethanol,CCO,,,,,,
YEYCQJVCAMFWCO-PXBBAZSNSA-N,CC(C)CCC[C@@H](C)[C@H]1CC[C@H]2[C@@H]3CC=C4C[C@H](CC[C@]4(C)[C@H]3CC[C@]12C)OC=O,-1.839553461,20.0,Reaxys,ethanol,CCO,,,,,,
YFVXLROHJBSEDW-QZQOTICOSA-N,c1ccc(cc1)Nc1ccc(cc1)/N=N/c1ccc(cc1)N(=O)=O,-1.355566778,25.0,Reaxys,ethanol,CCO,,,,,,
YGSDEFSMJLZEOE-UHFFFAOYSA-N,c1ccc(c(c1)C(=O)O)O,0.363600914,25.0,Reaxys,ethanol,CCO,,,,,,
YGTUPRIZNBMOFV-UHFFFAOYSA-N,c1ccc(c(c1)C(=O)c1ccc(cc1)O)C(=O)O,0.172072779,21.0,Reaxys,ethanol,CCO,,,,,,
YGVIZQFGNZMZRF-UHFFFAOYSA-N,c1ccc2c(c1)c1CCCCc1n2C(=O)N,-1.234045276,25.0,Reaxys,ethanol,CCO,,,,,,
YHUVSTOODJDXKV-UHFFFAOYSA-N,COc1ccc(cc1)N=Cc1ccc(cc1)c1ccccc1,-2.638272361,22.0,Reaxys,ethanol,CCO,,,,,,
YIJMXKZTQSAAQY-UHFFFAOYSA-N,CCOC1(C(c2ccccc2)Br)C(=O)NC(=O)N1,-1.042435463,20.0,Reaxys,ethanol,CCO,,,,,,
YIKYNHJUKRTCJL-UHFFFAOYSA-N,CCc1c(c(=O)cco1)O,0.135544069,24.99,Reaxys,ethanol,CCO,,,,,,
YIRNNSRYVBZJSD-UHFFFAOYSA-N,CCCCCCCCCCCCCCC1C(=O)N=C(N)S1,-2.581063963,25.0,Reaxys,ethanol,CCO,,,,,,
YJLSYXATLKWVRI-UHFFFAOYSA-N,c1ccc(cc1)CC1C(=O)N(c2ccccc2)C(=O)N1CC(=O)O,0.187974848,20.0,Reaxys,ethanol,CCO,,,,,,
YKZYNOWDVPDSMO-QMMMGPOBSA-N,C1C=C(CC[C@@H](CC(=O)O)O)C(=O)C1,-0.394055294,20.0,Reaxys,ethanol,CCO,,,,,,
YNPNZTXNASCQKK-UHFFFAOYSA-N,c1ccc2c(c1)ccc1ccccc21,-1.9531226,25.0,Reaxys,ethanol,CCO,,,,,,
YOCSNHRJFCUGEU-UHFFFAOYSA-N,Cc1ccc(cc1)C(c1ccccc1)(C(c1ccccc1)(c1ccc(C)cc1)O)O,-2.897091314,25.0,Reaxys,ethanol,CCO,,,,,,
YOSHYTLCDANDAN-UHFFFAOYSA-N,CCCCC1=NC2(CCCC2)C(=O)N1Cc1ccc(cc1)c1ccccc1c1[nH]nnn1,-1.741562862,24.64,Reaxys,ethanol,CCO,,,,,,
YQEZLKZALYSWHR-CYBMUJFWSA-N,CN[C@]1(CCCCC1=O)c1ccccc1Cl,-0.528767431,24.94,Reaxys,ethanol,CCO,,,,,,
YQJPLPIXXNODAV-UHFFFAOYSA-N,CCCCCCCCCCCCC(=O)N(c1ccc(cc1)N(C)C)C(=O)Nc1ccc(cc1)N(C)C,-3.279386998,18.0,Reaxys,ethanol,CCO,,,,,,
YQWAGWNKWCPCFX-UHFFFAOYSA-N,CCOc1ccc(cc1OC)COC(=O)NC(=O)N,-2.837505883,17.0,Reaxys,ethanol,CCO,,,,,,
YQYQAKKOHZYHEJ-OCEACIFDSA-N,c1ccc(cc1)N(c1ccccc1)c1ccc(cc1)/N=N/c1ccc(cc1N(=O)=O)N(=O)=O,-3.22184875,25.0,Reaxys,ethanol,CCO,,,,,,
YRPYUECFYIYBGG-UHFFFAOYSA-N,c1ccc(cc1)Nc1cc(ccc1N)Cl,-1.225877629,20.0,Reaxys,ethanol,CCO,,,,,,
YSEMBYWAAKOCKW-UHFFFAOYSA-N,c1cc(ccc1C=C1CCC(=Cc2ccc(cc2)O)C1=O)O,-2.272754731,20.0,Reaxys,ethanol,CCO,,,,,,
YVJCXMCIFPUNDO-UHFFFAOYSA-N,Cc1c(c(C)c(c(C)c1[N+](=O)[O-])[N+](=O)[O-])[N+](=O)[O-],-3.105828551,15.0,Reaxys,ethanol,CCO,,,,,,
YVUQSNJEYSNKRX-UHFFFAOYSA-N,c1ccc2c(c1)[nH]c(=O)n2C1CCN(CCCC(c2ccc(cc2)F)c2ccc(cc2)F)CC1,-1.687277577,25.0,Reaxys,ethanol,CCO,,,,,,
YWTYJOPNNQFBPC-UHFFFAOYSA-N,c1cc(Cl)ncc1CN1CCN/C/1=N\[N+](=O)[O-],-2.065409192,25.53,Reaxys,ethanol,CCO,,,,,,
YXOLAZRVSSWPPT-UHFFFAOYSA-N,c1cc(c(cc1O)O)c1c(c(=O)c2c(cc(cc2o1)O)O)O,-1.004364225,24.99,Reaxys,ethanol,CCO,,,,,,
YXTRCOAFNXQTKL-UHFFFAOYSA-N,COc1c(cc(cc1Br)Br)Br,-1.524765299,15.0,Reaxys,ethanol,CCO,,,,,,
YYRLUIQHYPPKGI-UOGPBWDTSA-N,C1[C@H]([C@@H]2[C@@H]([C@@H]3[C@H](O2)O[C@@H](C(Cl)(Cl)Cl)O3)O)O[C@@H](C(Cl)(Cl)Cl)O1,-3.132343579,25.0,Reaxys,ethanol,CCO,,,,,,
YZIXRDWVUVBLFL-JLYPQOKGSA-N,C1C/C(=N\O)/C(=N/NC(=S)N)/C(=N/O)/C1,-2.065867745,25.0,Reaxys,ethanol,CCO,,,,,,
ZBJWWKFMHOAPNS-UHFFFAOYSA-N,c1cc2c(cc(c(c2nc1)O)I)S(=O)(=O)O,-2.062583221,25.0,Reaxys,ethanol,CCO,,,,,,
ZBRCAASZBMWIDA-QCLAVDOMSA-N,c1cnccc1C(=O)N/N=C/[C@H]([C@@H]1[C@@H]([C@@H](C(=O)O1)O)O)O,-2.0552195,21.0,Reaxys,ethanol,CCO,,,,,,
ZCFSWYZFGJAUKK-UHFFFAOYSA-N,Cc1ccc(C)c(c1[N+](=O)[O-])[N+](=O)[O-],-0.950194414,15.0,Reaxys,ethanol,CCO,,,,,,
ZCTGHNQGIRLFDR-KTKRTIGZSA-N,CCN(CC)CCNC(=O)c1ccc(cc1)NC(=O)/C=C\C(=O)O,-3.171335925,15.0,Reaxys,ethanol,CCO,,,,,,
ZFSLODLOARCGLH-UHFFFAOYSA-N,c1(=O)[nH]c(=O)[nH]c(=O)[nH]1,-2.213600031,22.5,Reaxys,ethanol,CCO,,,,,,
ZIUSSTSXXLLKKK-SMSFQYLMSA-N,COc1cc(/C=C/C(=O)CC(=O)/C=C/c2ccc(c(c2)OC)O)ccc1O,-2.166852656,25.0,Reaxys,ethanol,CCO,,,,,,
ZJGHEUYKWKTKCH-UHFFFAOYSA-N,CCOC(=O)c1ccc(cc1)NC(=S)N,-0.873675102,20.0,Reaxys,ethanol,CCO,,,,,,
ZKPLTLWJBLZUSM-UHFFFAOYSA-N,Cc1cc(c(C)c(c1[N+](=O)[O-])[N+](=O)[O-])[N+](=O)[O-],-2.08127528,15.0,Reaxys,ethanol,CCO,,,,,,
ZLHNYIHIHQEHJQ-UHFFFAOYSA-N,CC(=O)NNC(=O)C,0.115505606,20.0,Reaxys,ethanol,CCO,,,,,,
ZMFNLYAUUKOVIN-UHFFFAOYSA-N,c1ccc(cc1)C(c1ccccc1)(C(=O)NNS(=O)(=O)c1ccc(cc1)[N+](=O)[O-])O,-1.177553773,21.0,Reaxys,ethanol,CCO,,,,,,
ZNLCZYFJZIUCIJ-UHFFFAOYSA-N,c1ccc(cc1)Nc1ccc(cc1)n1nc2ccccc2[n+]1[O-],-2.003367172,25.0,Reaxys,ethanol,CCO,,,,,,
ZOLJFBQEKSZVCB-UHFFFAOYSA-N,CCCCCCCCCCCCCCCCCC(=O)Nc1ccccc1,-2.379723593,20.0,Reaxys,ethanol,CCO,,,,,,
ZPTVNYMJQHSSEA-UHFFFAOYSA-N,Cc1ccc(cc1)[N+](=O)[O-],-0.140235068,15.0,Reaxys,ethanol,CCO,,,,,,
ZQBAKBUEJOMQEX-UHFFFAOYSA-N,c1ccc(cc1)OC(=O)c1ccccc1O,0.338028289,24.99,Reaxys,ethanol,CCO,,,,,,
ZQKCNHLMCZDMNN-WUXMJOGZSA-N,CCOc1ccc(cc1/C=N/NC(=O)N)[N+](=O)[O-],-2.504554637,20.0,Reaxys,ethanol,CCO,,,,,,
ZRVUJXDFFKFLMG-UHFFFAOYSA-N,Cc1cnc(NC(=O)C2=C(c3ccccc3S(=O)(=O)N2C)O)s1,-3.012875764,24.99,Reaxys,ethanol,CCO,,,,,,
ZSUUZFDADZFHQZ-UHFFFAOYSA-N,CCCCC(C)OC(=O)NC(=O)N,-1.287910186,17.0,Reaxys,ethanol,CCO,,,,,,
ZTHHRSBDBPCCMZ-UHFFFAOYSA-N,COc1cnc(Cl)nc1Cl,-0.090405698,26.28,Reaxys,ethanol,CCO,,,,,,
ZTHYODDOHIVTJV-UHFFFAOYSA-N,CCCOC(=O)c1cc(c(c(c1)O)O)O,0.583329855,25.0,Reaxys,ethanol,CCO,,,,,,
ZUOUZKKEUPVFJK-UHFFFAOYSA-N,c1ccc(cc1)c1ccccc1,-0.227885089,25.0,Reaxys,ethanol,CCO,,,,,,
ZUTCJXFCHHDFJS-UHFFFAOYSA-N,c1cc2c(cccc2[N+](=O)[O-])c(c1)[N+](=O)[O-],-3.02657759,16.0,Reaxys,ethanol,CCO,,,,,,
ZVNYJIZDIRKMBF-UHFFFAOYSA-N,COc1ccc(cc1OC)C(=O)N1CCN(CC1)c1ccc2c(CCC(=O)N2)c1,-3.097255742,25.0,Reaxys,ethanol,CCO,,,,,,
ZWFHVYLMPFPMKA-UHFFFAOYSA-N,Cc1ccc2c(c1)nc(Nc1ccccc1)[nH]2,-0.438764661,15.0,Reaxys,ethanol,CCO,,,,,,
ZWLPBLYKEWSWPD-UHFFFAOYSA-N,Cc1ccccc1C(=O)O,0.365480473,22.9,Reaxys,ethanol,CCO,,,,,,
ZXVONLUNISGICL-UHFFFAOYSA-N,Cc1cc(cc(c1O)[N+](=O)[O-])[N+](=O)[O-],-0.766250641,15.0,Reaxys,ethanol,CCO,,,,,,
ZYLCQMSHBJVMBX-UHFFFAOYSA-N,CN(C)c1ccc(cc1)C(=Nc1ccccc1N)c1ccc(cc1)N(C)C,-2.350352217,17.0,Reaxys,ethanol,CCO,,,,,,
ABLACSIRCKEUOB-UHFFFAOYSA-N,Cc1cc(O)c2C(=O)c3c(O)cc(O)c4C(=O)C(C)(C)c5cc(O)c1c2c5c34,-3.332075128,20.0,Reaxys,benzene,c1ccccc1,,,,,,
ABTUPTPDCSVHOI-UHFFFAOYSA-N,O=C1CCCCCCCCCCCCCCCCCN1,0.171100776,22.0,Reaxys,benzene,c1ccccc1,,,,,,
ACGUYXCXAPNIKK-UHFFFAOYSA-N,Oc1c(Cl)cc(Cl)c(Cl)c1Cc2c(O)c(Cl)cc(Cl)c2Cl,-0.885219291,20.0,Reaxys,benzene,c1ccccc1,,,,,,
ADGVSBKVUXRJQH-UHFFFAOYSA-N,O(C1(c2ccccc2)c3ccccc3c4ccccc14)C5(c6ccccc6)c7ccccc7c8ccccc58,-0.568182429,,Reaxys,benzene,c1ccccc1,,,,,,
AEDIXYWIVPYNBI-UHFFFAOYSA-N,CCCCCCC(N)=O,-1.342690328,20.0,Reaxys,benzene,c1ccccc1,,,,,,
AFFZWQZWWRKJSU-UHFFFAOYSA-N,CC1(C)C4CCC1/C(=C/Nc3ccc2ccccc2c3)C4=O,-1.750473715,,Reaxys,benzene,c1ccccc1,,,,,,
AFPHTEQTJZKQAQ-UHFFFAOYSA-N,OC(=O)c1cccc(c1)[N+]([O-])=O,-0.969402295,25.0,Reaxys,benzene,c1ccccc1,,,,,,
AGUIVNYEYSCPNI-UHFFFAOYSA-N,CN(c1c(cc(cc1[N+]([O-])=O)[N+]([O-])=O)[N+]([O-])=O)[N+]([O-])=O,-0.810589193,18.0,Reaxys,benzene,c1ccccc1,,,,,,
ALBYIUDWACNRRB-UHFFFAOYSA-N,CCCCCC(N)=O,-1.058156274,20.0,Reaxys,benzene,c1ccccc1,,,,,,
ALYNCZNDIQEVRV-UHFFFAOYSA-N,Nc1ccc(cc1)C(O)=O,-2.34814254,25.0,Reaxys,benzene,c1ccccc1,,,,,,
ANXTWUZEYYACQX-UHFFFAOYSA-N,Cc1ccc(cc1)N(c2cccc(C)c2)c3cccc(C)c3,0.436610032,17.0,Reaxys,benzene,c1ccccc1,,,,,,
AOZXETLGPZAZNK-UHFFFAOYSA-N,CCOc1c(cc(cc1[N+]([O-])=O)[N+]([O-])=O)[N+]([O-])=O,0.224355743,15.0,Reaxys,benzene,c1ccccc1,,,,,,
APXIOBIHMSMFLO-UHFFFAOYSA-N,COc1cccc(C=NNc2ccc(cc2[N+]([O-])=O)[N+]([O-])=O)c1,-2.988178757,20.0,Reaxys,benzene,c1ccccc1,,,,,,
APZGKGHAXUURNO-UHFFFAOYSA-N,CC12SC3(C)SC(C)(S1)SC(C)(S2)S3,0.117757985,20.0,Reaxys,benzene,c1ccccc1,,,,,,
AQKGLAJGQUIHSJ-ZDEMKHDWSA-N,[C@@H]45C3=NC1=C([C@H]2CC[C@@H]1C2(C)C)N=C3[C@@H](CC4)C5(C)C,-0.39912237,20.0,Reaxys,benzene,c1ccccc1,,,,,,
ARQPAZGNIULDOE-AFYYWNPRSA-N,C[C@@H]3CCCC(NC(=O)c1cccc2ccccc12)C3,-0.405925001,26.0,Reaxys,benzene,c1ccccc1,,,,,,
ASKWNDPFGDMSCK-UHFFFAOYSA-N,Cc1ccccc1N=Nc2ccc(O)cc2,-0.044894198,30.0,Reaxys,benzene,c1ccccc1,,,,,,
AUHHYELHRWCWEZ-UHFFFAOYSA-N,Clc1c(Cl)c(Cl)c2C(=O)OC(=O)c2c1Cl,-0.91164702,25.0,Reaxys,benzene,c1ccccc1,,,,,,
AVCSMMMOCOTIHF-UHFFFAOYSA-N,[O-][N+](=O)c1cccc2cccc(c12)[N+]([O-])=O,-1.521227671,16.0,Reaxys,benzene,c1ccccc1,,,,,,
AVVYOFCWOUPHSM-SAPNQHFASA-N,N#C/C(c1ccccc1)=N(=O)/c2ccc(Cl)cc2,-0.270795364,26.0,Reaxys,benzene,c1ccccc1,,,,,,
AXGXXLOKNNMCHP-UHFFFAOYSA-N,Cc1cc(O)ccc1N=Nc2ccccc2,-0.25369029,30.0,Reaxys,benzene,c1ccccc1,,,,,,
BBEAQIROQSPTKN-UHFFFAOYSA-N,c1cc2ccc3cccc4ccc(c1)c2c34,-0.259626574,20.0,Reaxys,benzene,c1ccccc1,,,,,,
BCAYFYHKUBCJIB-UHFFFAOYSA-N,OC(=O)CCC(=O)NNC(=O)c1ccccc1,-3.397897726,25.0,Reaxys,benzene,c1ccccc1,,,,,,
BCXWMIMRDMIJGL-UHFFFAOYSA-N,Cl[S](=O)(=O)c1cccc2c1cccc2[S](Cl)(=O)=O,-0.842909873,20.0,Reaxys,benzene,c1ccccc1,,,,,,
BDDYZHKLKHFEBJ-UHFFFAOYSA-N,O=C(OCOC(=O)c1ccccc1)c2ccccc2,-0.034809562,24.0,Reaxys,benzene,c1ccccc1,,,,,,
BDJRBEYXGGNYIS-UHFFFAOYSA-N,OC(=O)CCCCCCCC(O)=O,-3.368383065,25.0,Reaxys,benzene,c1ccccc1,,,,,,
BEKZHETVNVFYCV-UHFFFAOYSA-N,[O-][N+](=O)c1cc2cccc(c2c(c1)[N+]([O-])=O)[N+]([O-])=O,-1.868131264,15.0,Reaxys,benzene,c1ccccc1,,,,,,
BEQVQKJCLJBTKZ-UHFFFAOYSA-N,O[P](=O)(c1ccccc1)c2ccccc2,-2.105104492,19.99,Reaxys,benzene,c1ccccc1,,,,,,
BEYOBVMPDRKTNR-BUHFOSPRSA-N,c1ccc(cc1)/N=N/c2ccc(cc2)O,-1.139808281,30.0,Reaxys,benzene,c1ccccc1,,,,,,
BFRVGQZWGWUHBQ-GDDAKTJHSA-N,CCc1c(c2/cc/3\nc(/cc\4/c(c(/c(/[nH]4)c/c5n/c(c\c1[nH]2)/C(=C5C)CC)C)CC)C(=C3C)CC)C,-2.795880925,25.0,Reaxys,benzene,c1ccccc1,,,,,,
BGNQYGRXEXDAIQ-UHFFFAOYSA-N,CCOC(=O)c1cnn(C)c1[S](=O)(=O)NC(=O)Nc2nc(OC)cc(OC)n2,-1.4242941,20.0,Reaxys,benzene,c1ccccc1,,,,,,
BIEBWMDQQCKEIN-UHFFFAOYSA-N,NC(=O)C(O)c1ccccc1Cl,-1.881211544,22.0,Reaxys,benzene,c1ccccc1,,,,,,
BIOPPFDHKHWJIA-UHFFFAOYSA-N,N#Cc1c2ccccc2c(C#N)c3ccccc13,-2.756356503,20.0,Reaxys,benzene,c1ccccc1,,,,,,
BKYWPNROPGQIFZ-UHFFFAOYSA-N,Cc1ccc(c(C)c1)C(O)=O,-0.625153426,20.0,Reaxys,benzene,c1ccccc1,,,,,,
BOBLSBAZCVBABY-UHFFFAOYSA-N,C(=CC=Cc1ccccc1)C=Cc2ccccc2,-1.431597495,19.0,Reaxys,benzene,c1ccccc1,,,,,,
BPTKLSBRRJFNHJ-UHFFFAOYSA-N,Oc1ccc(N=Nc2ccccc2)c(O)c1,-1.507550426,30.0,Reaxys,benzene,c1ccccc1,,,,,,
BQJCRHHNABKAKU-KBQPJGBKSA-N,CN1CC[C@]23[C@H]4Oc5c(O)ccc(C[C@@H]1[C@@H]2C=C[C@@H]4O)c35,-2.713522567,20.0,Reaxys,benzene,c1ccccc1,,,,,,
BTJIUGUIPKRLHP-UHFFFAOYSA-N,Oc1ccc(cc1)[N+]([O-])=O,-1.019509832,25.0,Reaxys,benzene,c1ccccc1,,,,,,
BTQMNEKPMOZIDW-UHFFFAOYSA-N,CC(C)CC(CC(C)C)(CC(C)C)C(=O)NO,-0.431798276,26.0,Reaxys,benzene,c1ccccc1,,,,,,
BWSFWXSSALIZAU-UHFFFAOYSA-N,OC(C(O)=O)c1ccc(Cl)cc1,-1.598802144,22.0,Reaxys,benzene,c1ccccc1,,,,,,
BXRFQSNOROATLV-UHFFFAOYSA-N,[O-][N+](=O)c1ccc(C=O)cc1,-0.277373785,26.0,Reaxys,benzene,c1ccccc1,,,,,,
BZEUYEFVVDTLOD-PLNGDYQASA-N,CCC\C=C/C(N)=O,0.648860333,20.0,Reaxys,benzene,c1ccccc1,,,,,,
BZEUYEFVVDTLOD-SNAWJCMRSA-N,CCC\C=C\C(N)=O,-1.554882494,20.0,Reaxys,benzene,c1ccccc1,,,,,,
CAQHPYSDQFDJAL-UHFFFAOYSA-N,ON=C1C(=O)C=Cc2ccccc12,-0.376755606,26.0,Reaxys,benzene,c1ccccc1,,,,,,
CJADAVIATOALFB-UHFFFAOYSA-N,O=C1c2ccccc2c3c4c1cccc4c5cccc6C(=O)c7ccccc7c3c56,-2.188086645,23.0,Reaxys,benzene,c1ccccc1,,,,,,
COGNJHDCPSNYEH-UHFFFAOYSA-N,CCCCCCC(C)=NNC(N)=O,-1.40926556,20.0,Reaxys,benzene,c1ccccc1,,,,,,
CPJSUEIXXCENMM-UHFFFAOYSA-N,CCOc1ccc(NC(C)=O)cc1,-2.497966587,25.0,Reaxys,benzene,c1ccccc1,,,,,,
CPXHDGJIYPGMMZ-UHFFFAOYSA-N,OC(C#CC(O)(c1ccccc1)c2ccccc2)(c3ccccc3)c4ccccc4,-3.81024671,24.0,Reaxys,benzene,c1ccccc1,,,,,,
CQIUKKVOEOPUDV-IYSWYEEDSA-N,C[C@H]1OC=C2C(=C(C(O)=O)C(=O)C(=C2[C@@H]1C)C)O,-0.942313597,25.0,Reaxys,benzene,c1ccccc1,,,,,,
CSHWQDPOILHKBI-UHFFFAOYSA-N,c1cc2cccc3c4cccc5cccc(c(c1)c23)c45,-2.031526213,20.0,Reaxys,benzene,c1ccccc1,,,,,,
CTUQBZGKHZPYJF-UHFFFAOYSA-N,O=C(C(C(=O)c1ccccc1)C(=O)c2ccccc2)c3ccccc3,-2.971795408,21.0,Reaxys,benzene,c1ccccc1,,,,,,
CTVADTSNUUHIPU-FOCLMDBBSA-N,CCC1=CC(N=Nc2ccccc2O)(C(O)C=C1)c3ccccc3,0.969157398,30.0,Reaxys,benzene,c1ccccc1,,,,,,
CWFGKWQPVBFODR-HDICACEKSA-N,CCCCCCCCC(O)C(O)CCCCCCCC,-2.042149762,25.0,Reaxys,benzene,c1ccccc1,,,,,,
CWRYPZZKDGJXCA-UHFFFAOYSA-N,C1Cc2cccc3cccc1c23,0.260115988,24.84,Reaxys,benzene,c1ccccc1,,,,,,
CXOFVDLJLONNDW-UHFFFAOYSA-N,O=C1NC(=O)C(N1)(c2ccccc2)c3ccccc3,-3.225777791,20.0,Reaxys,benzene,c1ccccc1,,,,,,
CZGCEKJOLUNIFY-UHFFFAOYSA-N,[O-][N+](=O)c1ccc(Cl)cc1,0.667218289,17.0,Reaxys,benzene,c1ccccc1,,,,,,
DBKKFIIYQGGHJO-UHFFFAOYSA-N,CCOC(=O)C(=O)C(=O)OCC,0.060099036,22.0,Reaxys,benzene,c1ccccc1,,,,,,
DDBREPKUVSBGFI-UHFFFAOYSA-N,CCC1(C(=O)NC(=O)NC1=O)c2ccccc2,-2.380508679,20.0,Reaxys,benzene,c1ccccc1,,,,,,