StdInChIKey,SMILES,LogS,T,Source,Solvent,Solvent_SMILES,Smilesa,REF1,REF2,REF3,REF4,REF5
OROGSEYTTFOCAN-DNJOTXNNSA-N,CN1CC[C@]23[C@H]4C=C[C@@H]([C@@H]3Oc3c(ccc(C[C@@H]14)c23)OC)O,0.222761727,25.0,Reaxys,ethanol,CCO,,,,,,
ORQISITYMWGFKX-UHFFFAOYSA-N,CCC1(CCO)C(=O)NC(=S)NC1=O,-0.564126195,25.0,Reaxys,ethanol,CCO,,,,,,
ORZXJYFZPFFYJC-UHFFFAOYSA-N,CN(C)c1ccc(cc1)C(C#N)(c1ccccc1)c1ccc(cc1)N(C)C,-2.508637242,24.5,Reaxys,ethanol,CCO,,,,,,
OSBLXHNHXUZTPI-UHFFFAOYSA-N,c1ccc2c(c1)c(=O)nc(c1ccccc1S(=O)(=O)N)[nH]2,-2.612749267,22.5,Reaxys,ethanol,CCO,,,,,,
OSCAUVQGTDAMQI-UHFFFAOYSA-N,c1ccc(cc1)C(c1ccccc1)(C(=O)NNS(=O)(=O)c1ccccc1)O,-0.71333159,21.0,Reaxys,ethanol,CCO,,,,,,
OSZUGFVVDWLSBH-UHFFFAOYSA-N,CCCCCCC(=O)N(c1ccc(cc1)N(C)C)C(=O)Nc1ccc(cc1)N(C)C,-2.761892022,20.0,Reaxys,ethanol,CCO,,,,,,
OTLNPYWUJOZPPA-UHFFFAOYSA-N,c1cc(ccc1C(=O)O)[N+](=O)[O-],-0.860124642,25.0,Reaxys,ethanol,CCO,,,,,,
OVBPIULPVIDEAO-LBPRGKRZSA-N,c1cc(ccc1C(=O)N[C@@H](CCC(=O)O)C(=O)O)NCc1cnc2c(c(=O)nc(N)[nH]2)n1,-2.921360783,25.0,Reaxys,ethanol,CCO,,,,,,
OWEKLAQTSKJVEG-UHFFFAOYSA-N,CCOC(=O)NC(C)(C(=O)O)NC(=O)OCC,0.626228979,20.0,Reaxys,ethanol,CCO,,,,,,
OZHJEQVYCBTHJT-UHFFFAOYSA-N,Cc1c(c(c(c(c1Br)Br)Br)Br)Br,-3.670157508,20.0,Reaxys,ethanol,CCO,,,,,,
PBPVEQLHHMEARQ-UHFFFAOYSA-N,c1ccc(cc1)Nc1ccc(cc1)n1nc2ccccc2n1,-1.155845958,25.0,Reaxys,ethanol,CCO,,,,,,
PCMMEMLVVTUFTM-UHFFFAOYSA-N,COc1ccc(cc1)N=Cc1ccc(cc1)[N+](=O)[O-],-1.962574264,22.0,Reaxys,ethanol,CCO,,,,,,
PCMORTLOPMLEFB-UHFFFAOYSA-N,COc1cc(C=CC(=O)O)cc(c1O)OC,-0.687277577,24.99,Reaxys,ethanol,CCO,,,,,,
PCOBBVZJEWWZFR-UHFFFAOYSA-N,CCOC(=O)Nc1ccc(cc1N)NCc1ccc(cc1)F,-1.18089396,20.0,Reaxys,ethanol,CCO,,,,,,
PCZOHLXUXFIOCF-BXMDZJJMSA-N,CC[C@H](C)C(=O)O[C@H]1C[C@@H](C)C=C2C=C[C@H](C)[C@H](CC[C@@H]3C[C@H](CC(=O)O3)O)[C@@H]12,-1.218807164,25.0,Reaxys,ethanol,CCO,,,,,,
PDKQJNXSAFZHTL-UHFFFAOYSA-N,Cc1ccc(cc1)C(CCC(c1ccccc1)(c1ccc(C)cc1)O)(c1ccccc1)O,-1.90910954,22.0,Reaxys,ethanol,CCO,,,,,,
PDMLSWLQHBTLJF-UHFFFAOYSA-N,c1ccc2cc(ccc2c1)OP(=O)(Oc1ccc2ccccc2c1)Oc1ccc2ccccc2c1,-2.678033738,25.0,Reaxys,ethanol,CCO,,,,,,
PDZIFGIQUYFQGK-UHFFFAOYSA-N,c1ccc2c(c1)c1CCCC(=O)c1[nH]2,-0.990246259,20.0,Reaxys,ethanol,CCO,,,,,,
PFVCRIULCASTAH-ZMGSENCKSA-N,CC1(C)C2CC[C@@]1(C)C(=O)/C/2=C(/c1ccccc1)\O,-0.983952847,17.0,Reaxys,ethanol,CCO,,,,,,
PHAAHAOHZXTVJB-UHFFFAOYSA-N,CCCCCCCCCCCCCCCCCNC(=O)CCCCCCCCC(=O)O,-2.52923583,21.0,Reaxys,ethanol,CCO,,,,,,
PHMBVCPLDPDESM-FKSUSPILSA-N,CN1[C@H]2CC[C@@H]1[C@H]([C@H](C2)O)C(=O)O,-1.093780574,17.0,Reaxys,ethanol,CCO,,,,,,
PITGSQSQGJDIOP-UHFFFAOYSA-N,c1ccc2c(c1)c1=NC3=CC=CC(=Nc4c5ccccc5c(N=C5C=CC=C(C5)N=c2[nH]1)[nH]4)C3,0.160128574,25.0,Reaxys,ethanol,CCO,,,,,,
PJANXHGTPQOBST-VAWYXSNFSA-N,c1ccc(cc1)/C=C/c1ccccc1,-1.25995379,25.0,Reaxys,ethanol,CCO,,,,,,
PJBFVWGQFLYWCB-UHFFFAOYSA-N,CCCn1c2c(c(=O)n(CCC)c1=O)[nH]c(C13CC4CC(CC3C4)C1)n2,-1.296748044,20.0,Reaxys,ethanol,CCO,,,,,,
PJHUABJTDFXYRQ-UHFFFAOYSA-N,c1ccc(cc1)C(=O)N=[N+]=[N-],0.008276759,20.0,Reaxys,ethanol,CCO,,,,,,
POOSGDOYLQNASK-UHFFFAOYSA-N,CCCCCCCCCCCCCCCCCCCCCCCC,-2.45058394,19.85,Reaxys,ethanol,CCO,,,,,,
PORJPNDHJDOGPF-QVIHXGFCSA-N,c1ccc(cc1)N(c1ccccc1)c1ccc(cc1)/N=N/c1ccc(cc1C(F)(F)F)N(=O)=O,-3.236573593,25.0,Reaxys,ethanol,CCO,,,,,,
POULHZVOKOAJMA-UHFFFAOYSA-N,CCCCCCCCCCCC(=O)O,0.555510462,20.0,Reaxys,ethanol,CCO,,,,,,
PREBVFJICNPEKM-UHFFFAOYSA-N,c1cc(ccc1C=CC(=O)CC(=O)C=Cc1ccc(cc1)O)O,-0.764745547,20.0,Reaxys,ethanol,CCO,,,,,,
PRWFRMQHEAGAIW-UHFFFAOYSA-N,CCCCC(=O)N(c1ccc(cc1)N(C)C)C(=O)Nc1ccc(cc1)N(C)C,-2.685396149,20.0,Reaxys,ethanol,CCO,,,,,,
PSVPUHBSBYJSMQ-UHFFFAOYSA-N,CS(=O)(=O)c1ccc(cc1)C=O,-2.168330068,24.99,Reaxys,ethanol,CCO,,,,,,
PTFIPECGHSYQNR-UHFFFAOYSA-N,CCCCCCCCCCCCCCCc1cccc(c1)O,0.591476024,24.39,Reaxys,ethanol,CCO,,,,,,
PUIYMUZLKQOUOZ-UHFFFAOYSA-N,CC(C)c1ccc(cc1)NC(=O)N(C)C,-0.566285938,20.0,Reaxys,ethanol,CCO,,,,,,
PUJZLTUHWQIHCE-UHFFFAOYSA-N,Cc1ccccc1S(=O)(=O)NNC(=O)C(c1ccccc1)(c1ccccc1)O,-0.314498856,21.0,Reaxys,ethanol,CCO,,,,,,
PUQGLFHFIJAAOI-UHFFFAOYSA-N,c1cc2c3ccc(cc3C(c2cc1Br)O)N,-1.924085877,18.0,Reaxys,ethanol,CCO,,,,,,
PUUPGXQPWDWTPH-GTPODGLVSA-N,CC(C)CCC[C@@H](C)[C@H]1CC[C@H]2[C@@H]3CC=C4C[C@H](CC[C@]4(C)[C@H]3CC[C@]12C)OC(=O)C(C)C,-2.057621417,20.0,Reaxys,ethanol,CCO,,,,,,
PXDJXZJSCPSGGI-UHFFFAOYSA-N,CCCCCCCCCCCCCCCCOC(=O)CCCCCCCCCCCCCCC,-3.090170447,22.0,Reaxys,ethanol,CCO,,,,,,
PYGWGZALEOIKDF-UHFFFAOYSA-N,Cc1cc(cc(C)c1Oc1c(c(N)nc(Nc2ccc(cc2)C#N)n1)Br)C#N,-3.767782892,25.0,Reaxys,ethanol,CCO,,,,,,
PYJGXCNXONGNRV-UHFFFAOYSA-N,CC(c1ccccc1)OC(=O)NC(=O)N,-1.486007272,19.0,Reaxys,ethanol,CCO,,,,,,
PYZRQGJRPPTADH-UHFFFAOYSA-N,c1cc(c(c(c1)Cl)Cl)c1c(N)nc(N)nn1,-1.848997955,25.04,Reaxys,ethanol,CCO,,,,,,
PZEADHJHZRSKKI-UHFFFAOYSA-N,c1ccc(cc1)C(c1ccccc1)(C(=O)NNS(=O)(=O)c1ccc(cc1)N)O,-1.962800068,21.0,Reaxys,ethanol,CCO,,,,,,
QAISXTKWTBOYAA-UHFFFAOYSA-N,CCC(C(=O)O)NC=O,-0.449776358,25.0,Reaxys,ethanol,CCO,,,,,,
QCDYQQDYXPDABM-UHFFFAOYSA-N,c1c(cc(cc1O)O)O,0.53062241,25.0,Reaxys,ethanol,CCO,,,,,,
QCWBDMSQWLNWJC-UHFFFAOYSA-N,CCCC1(CCO)C(=O)NC(=S)NC1=O,-0.204123,25.0,Reaxys,ethanol,CCO,,,,,,
QCXJEYYXVJIFCE-UHFFFAOYSA-N,CC(=O)Nc1ccc(cc1)C(=O)O,-0.767004244,20.0,Reaxys,ethanol,CCO,,,,,,
QDYSGXFAJGAMSR-UHFFFAOYSA-N,CCCCCCCOC(=O)NC(=O)N,-1.703837128,19.7,Reaxys,ethanol,CCO,,,,,,
QGCVSGJZKFEJPE-UHFFFAOYSA-N,c1ccc(cc1)c1cccc(c1)/N=C/c1ccc(cc1N(=O)=O)N(=O)=O,-2.065501258,22.0,Reaxys,ethanol,CCO,,,,,,
QGVNJRROSLYGKF-UHFFFAOYSA-N,CCC1(CC)C(=O)NC(=S)NC1=O,-0.014917656,20.0,Reaxys,ethanol,CCO,,,,,,
QHMTXANCGGJZRX-WUXMJOGZSA-N,CC1=NNC(=O)N(C1)/N=C/c1cccnc1,-1.984737284,20.0,Reaxys,ethanol,CCO,,,,,,
QHZLMUACJMDIAE-UHFFFAOYSA-N,CCCCCCCCCCCCCCCC(=O)OCC(CO)O,-0.907458668,25.0,Reaxys,ethanol,CCO,,,,,,
QIGBRXMKCJKVMJ-UHFFFAOYSA-N,c1cc(ccc1O)O,0.533701714,24.5,Reaxys,ethanol,CCO,,,,,,
QIQXTHQIDYTFRH-UHFFFAOYSA-N,CCCCCCCCCCCCCCCCCC(=O)O,-0.600165637,25.0,Reaxys,ethanol,CCO,,,,,,
QIVBCDIJIAJPQS-UHFFFAOYSA-N,c1ccc2c(c1)c(CC(C(=O)O)N)c[nH]2,-3.320665467,25.0,Reaxys,ethanol,CCO,,,,,,
QJVXKWHHAMZTBY-GCPOEHJPSA-N,COc1cc(/C=C/CO)cc(c1O[C@H]1[C@@H]([C@H]([C@@H]([C@@H](CO)O1)O)O)O)OC,-2.071674923,20.0,Reaxys,ethanol,CCO,,,,,,
QLBIYHGOHHPBCC-UHFFFAOYSA-N,CCCCCCCCCCCCCCCCCC(=O)OCCCl,-1.320844297,25.0,Reaxys,ethanol,CCO,,,,,,
QNMFHVHLGOZVAH-UHFFFAOYSA-N,CN(c1ccccc1)c1c(cc(cc1[N+](=O)[O-])[N+](=O)[O-])[N+](=O)[O-],-2.025641699,25.0,Reaxys,ethanol,CCO,,,,,,
QNWYCJHWPFCTIO-NXEZZACHSA-N,CC(C)[C@@](CC[C@](C)(C(=O)O)O)(C(=O)O)O,-0.749541691,20.0,Reaxys,ethanol,CCO,,,,,,
QPGPCPKDVSPJAY-UHFFFAOYSA-N,c1cc(I)oc1C=O,-0.869196505,20.0,Reaxys,ethanol,CCO,,,,,,
QPPBRPIAZZHUNT-UHFFFAOYSA-N,Cc1ccnc(n1)NS(=O)(=O)c1ccc(cc1)N,-2.101837285,24.0,Reaxys,ethanol,CCO,,,,,,
QQCJUMIKRNTBRZ-UHFFFAOYSA-N,c1ccc(cc1)C1C(=O)C(=O)OC1c1ccc2c(c1)OCO2,-2.210200097,17.0,Reaxys,ethanol,CCO,,,,,,
QRBSSDMZLRKOGR-OCEACIFDSA-N,c1ccc(cc1)N=Nc1ccc(cc1)N(c1ccccc1)c1ccccc1,-0.714448841,25.0,Reaxys,ethanol,CCO,,,,,,
QSACCXVHEVWNMX-UHFFFAOYSA-N,CC(=O)Nc1ccccc1C(=O)O,-0.568635787,20.0,Reaxys,ethanol,CCO,,,,,,
QUHHFMIVCMIFRS-UHFFFAOYSA-N,CCOC(=O)C(C(C(=O)OCC)OC(=O)C)OC(=O)C,0.598792806,24.2,Reaxys,ethanol,CCO,,,,,,
QVPPQDAPAFWTCK-UHFFFAOYSA-N,c1cc(ccc1Cl)NC(=S)NNC(=O)c1ccncc1,-3.955554542,24.99,Reaxys,ethanol,CCO,,,,,,
QVQAYZIOQVYOBF-UHFFFAOYSA-N,CCCCCCCCCCCCC1C(=O)N=C(N)S1,-2.027519105,25.0,Reaxys,ethanol,CCO,,,,,,
QWZBEFCPZJWDKC-UHFFFAOYSA-N,CCCCCCCCCCCCCCCC(=O)OC(=O)CCCCCCCCCCCCCCC,-2.439194048,20.0,Reaxys,ethanol,CCO,,,,,,
QXAGNLMTCODAJH-UHFFFAOYSA-N,CCCC(CCC)OC(=O)NC(=O)N,-1.693113263,16.5,Reaxys,ethanol,CCO,,,,,,
QXBKGKVIXWSWEB-UHFFFAOYSA-N,c1ccc(cc1)c1ccc(cc1)/C=N/c1cccc(c1)c1ccccc1,-2.13076902,22.0,Reaxys,ethanol,CCO,,,,,,
QXSAKPUBHTZHKW-UHFFFAOYSA-N,c1cc(ccc1C(=O)N)O,0.170261202,20.0,Reaxys,ethanol,CCO,,,,,,
QYSPLQLAKJAUJT-UHFFFAOYSA-N,CN1C(=C(c2ccccc2S1(=O)=O)O)C(=O)Nc1ccccn1,-2.438899077,24.99,Reaxys,ethanol,CCO,,,,,,
QYSXJUFSXHHAJI-YRZJJWOYSA-N,CC(C)CCC[C@@H](C)[C@H]1CC[C@H]2/C(=C/C=C\3/C[C@H](CCC3=C)O)/CCC[C@]12C,0.595269013,25.0,Reaxys,ethanol,CCO,,,,,,
QZBWILJNDGNYNA-UHFFFAOYSA-N,Cc1cccc(c1OCC(=O)Nc1ccccc1)Cl,-0.440491896,25.0,Reaxys,ethanol,CCO,,,,,,
RAHRBPFKDAZSCJ-UHFFFAOYSA-N,c1ccc(cc1)c1c(ccc(c1[N+](=O)[O-])O)[N+](=O)[O-],-0.394128008,25.0,Reaxys,ethanol,CCO,,,,,,
RAIYSMBJSNYWPU-QWWZWVQMSA-N,CCOC(=O)[C@H]([C@H](C(=O)N)O)O,-1.072362614,22.0,Reaxys,ethanol,CCO,,,,,,
RAYRRTBHPMNPSP-UHFFFAOYSA-N,c1ccc(cc1)Nc1cccc(c1N)Cl,-0.686608467,20.0,Reaxys,ethanol,CCO,,,,,,
RBOXVHNMENFORY-DNJOTXNNSA-N,CN1CC[C@]23[C@H]4CC[C@@H]([C@@H]3Oc3c(ccc(C[C@@H]14)c23)OC)O,-0.456942235,20.0,Reaxys,ethanol,CCO,,,,,,
REFJWTPEDVJJIY-UHFFFAOYSA-N,c1cc(c(cc1c1c(c(=O)c2c(cc(cc2o1)O)O)O)O)O,-1.581767392,25.44,Reaxys,ethanol,CCO,,,,,,
RENUKYOICMBIKE-UHFFFAOYSA-N,CC(C)CC(C)OC(=O)NC(=O)N,-1.815289433,16.5,Reaxys,ethanol,CCO,,,,,,
REQGKPUCIBDMFW-OUKQBFOZSA-N,CCCCCCC/C=C/C(=O)N(c1ccc(cc1)N(C)C)C(=O)Nc1ccc(cc1)N(C)C,-2.477818615,20.0,Reaxys,ethanol,CCO,,,,,,
RFVNOJDQRGSOEL-UHFFFAOYSA-N,CCCCCCCCCCCCCCCCCC(=O)OCCO,-0.999204807,25.0,Reaxys,ethanol,CCO,,,,,,
RGDPZMQZWZMONQ-UHFFFAOYSA-N,CC(=O)Nc1cccc(c1)C(=O)O,-1.214669172,20.0,Reaxys,ethanol,CCO,,,,,,
RGHHSNMVTDWUBI-UHFFFAOYSA-N,c1cc(ccc1C=O)O,0.539322329,24.22,Reaxys,ethanol,CCO,,,,,,
RHTVQEPJVKUMPI-UHFFFAOYSA-N,c1ccc(cc1)Nc1ccc(cc1[N+](=O)[O-])[N+](=O)[O-],-2.402484727,15.0,Reaxys,ethanol,CCO,,,,,,
RJFKAACXQHIYTD-UHFFFAOYSA-N,CCCCCCCCC(CC(=O)N(c1ccc(cc1)N(C)C)C(=O)Nc1ccc(cc1)N(C)C)O,-2.001074769,20.0,Reaxys,ethanol,CCO,,,,,,
RJKGJBPXVHTNJL-UHFFFAOYSA-N,c1ccc2c(c1)cccc2[N+](=O)[O-],-0.323508953,25.0,Reaxys,ethanol,CCO,,,,,,
RJUJQBSIFOSCCE-SFTDATJTSA-N,CCCCCCCC[C@@H]([C@H](CCCCCCCCCCCC(=O)O)O)N(=O)=O,-0.049896619,18.0,Reaxys,ethanol,CCO,,,,,,
RJWYTISHBMNMOZ-UHFFFAOYSA-N,c1cc2c(Cc3cc(ccc23)N)cc1Br,-1.517953347,18.0,Reaxys,ethanol,CCO,,,,,,
RLNMMRFIGZSWJX-UHFFFAOYSA-N,c1cc(c(c2c1cc(cc2[N+](=O)[O-])[N+](=O)[O-])[N+](=O)[O-])Cl,-2.531144873,15.0,Reaxys,ethanol,CCO,,,,,,
RMBFBMJGBANMMK-UHFFFAOYSA-N,Cc1ccc(cc1[N+](=O)[O-])[N+](=O)[O-],-0.965213683,15.0,Reaxys,ethanol,CCO,,,,,,
RNSGYMFGBVMZSJ-UHFFFAOYSA-N,CC(C)OC(=O)NC(=O)N,-1.253629325,16.0,Reaxys,ethanol,CCO,,,,,,
RNXRXBFLIGLDTC-UHFFFAOYSA-N,CCCCOC(=O)NC(=O)N,-1.114684198,18.0,Reaxys,ethanol,CCO,,,,,,
ROAXLGSFGIOFMH-UHFFFAOYSA-N,c1ccc2c(c1)nc(CSCc1nc3ccccc3o1)o2,-0.190347928,24.99,Reaxys,ethanol,CCO,,,,,,
ROHFNLRQFUQHCH-UHFFFAOYSA-N,CC(C)CC(C(=O)O)N,-2.977971986,25.0,Reaxys,ethanol,CCO,,,,,,
ROORDVPLFPIABK-UHFFFAOYSA-N,c1ccc(cc1)OC(=O)Oc1ccccc1,-0.639030045,24.84,Reaxys,ethanol,CCO,,,,,,
RPWFJAMTCNSJKK-UHFFFAOYSA-N,CCCCCCCCCCCCOC(=O)c1cc(c(c(c1)O)O)O,0.169483185,20.0,Reaxys,ethanol,CCO,,,,,,
RRGUKTPIGVIEKM-UHFFFAOYSA-N,C1CCC(CC1)n1c(CCCCOc2ccc3c(CCC(=O)N3)c2)nnn1,-1.98098835,25.0,Reaxys,ethanol,CCO,,,,,,
RRKTZKIUPZVBMF-IBTVXLQLSA-N,COc1cc2c(cc1OC)N1C(=O)C[C@H]3[C@@H]4[C@H]5C[C@H]6[C@]2(CCN6CC5=CCO3)[C@@H]14,0.227894327,25.0,Reaxys,ethanol,CCO,,,,,,
RSQSQJNRHICNNH-NFMPGMCNSA-N,C=C1C[C@]23C[C@H]1CC[C@H]2[C@]12CC[C@@H]([C@](C)([C@H]1[C@@H]3C(=O)O)C(=O)O2)O,-1.6435879,24.99,Reaxys,ethanol,CCO,,,,,,
RTOHDISBHWDUCE-UHFFFAOYSA-N,C=CCc1ccc(c(c1)OC)OCCSCCOc1ccc(CC=C)cc1OC,-2.617593681,18.0,Reaxys,ethanol,CCO,,,,,,
RUBNOJFDOZNHSQ-UHFFFAOYSA-N,C=CCNC(=S)NNc1ccc(cc1)[N+](=O)[O-],-0.886966081,25.0,Reaxys,ethanol,CCO,,,,,,
RUCHWTKMOWXHLU-UHFFFAOYSA-N,c1cc(c(cc1[N+](=O)[O-])C(=O)O)N,-1.114267759,18.0,Reaxys,ethanol,CCO,,,,,,
RUGHUJBHQWALKM-UHFFFAOYSA-N,c1ccc(cc1)C(c1ccccc1)C(c1ccccc1)c1ccccc1,-2.720888368,20.0,Reaxys,ethanol,CCO,,,,,,
RVKRJABUQLMQNO-CGRMRQBZSA-N,Cc1cc2C(c3ccc(c(c3C(=O)c2c(c1)O)OC)O)C1[C@@H]([C@H]([C@@H]([C@@H](CO)O1)O)O)O,-1.887724776,15.0,Reaxys,ethanol,CCO,,,,,,
RWCCWEUUXYIKHB-UHFFFAOYSA-N,c1ccc(cc1)C(=O)c1ccccc1,-0.129832963,17.6,Reaxys,ethanol,CCO,,,,,,
RWTQCZGAMKTBRV-PTHRTHQKSA-N,CCCCC(=O)O[C@H]1CC[C@@]2(C)C(=CC[C@H]3[C@@H]4CC[C@H]([C@H](C)CCCC(C)C)[C@@]4(C)CC[C@H]23)C1,-2.070758013,20.0,Reaxys,ethanol,CCO,,,,,,
RWWVEQKPFPXLGL-ONCXSQPRSA-N,CC(C)C1=CC[C@H]2C(=C1)CC[C@@H]1[C@]2(C)CCC[C@@]1(C)C(=O)O,-1.70251239,20.0,Reaxys,ethanol,CCO,,,,,,
RWYAKNFAVJTZAH-UHFFFAOYSA-N,CCCCCCCCCCC1C(=O)N=C(N)S1,-1.753799911,25.0,Reaxys,ethanol,CCO,,,,,,
RXLOPKDPLPCVBH-UHFFFAOYSA-N,c1ccc2c(c1)cccc2NC(=O)NCCC(=O)O,-2.123908523,25.0,Reaxys,ethanol,CCO,,,,,,
RXQDBVWDABAAHL-UHFFFAOYSA-N,c1ccc(cc1)COC(=O)NCCCCCC(=O)O,0.061201085,20.0,Reaxys,ethanol,CCO,,,,,,
RYHOJIIKEZFTLE-UWVGGRQHSA-N,CC1(C)[C@@]2(C)CC[C@@]1(C(=O)OC2=O)Cl,-1.456273421,18.0,Reaxys,ethanol,CCO,,,,,,
RZICIAUTWVCXQM-KKQCNMDGSA-N,C1[C@@H]([C@H]([C@@H]([C@@H](O1)ON(=O)=O)ON(=O)=O)ON(=O)=O)ON(=O)=O,-0.802671124,20.0,Reaxys,ethanol,CCO,,,,,,
RZVAJINKPMORJF-UHFFFAOYSA-N,CC(=O)Nc1ccc(cc1)O,-0.052566894,25.0,Reaxys,ethanol,CCO,,,,,,
RZVHIXYEVGDQDX-UHFFFAOYSA-N,c1ccc2c(c1)C(=O)c1ccccc1C2=O,-1.77781932,25.0,Reaxys,ethanol,CCO,,,,,,
RZYNKBXUQOCKSI-UHFFFAOYSA-N,Cc1ccc(cc1)N(/C(=N/c1ccccc1)/Nc1ccccc1)c1[nH]c2ccc(C)cc2n1,-2.737778954,15.0,Reaxys,ethanol,CCO,,,,,,
SATCULPHIDQDRE-UHFFFAOYSA-N,c1cc2c(cc1C=O)OCO2,0.823520944,20.0,Reaxys,ethanol,CCO,,,,,,
SDACGHLXIUCCIC-ONEGZZNKSA-N,CC1(C)CC(=CC(=C(C#N)C#N)C1)/C=C/c1ccc(cc1)O,-2.196486306,25.0,Reaxys,ethanol,CCO,,,,,,
SDKSKRHLYWDWGB-XXXNUIEVSA-N,COc1ccc2c(c1)c(ccn2)[C@H]([C@@H]1C[C@H]2CCN1C[C@@H]2C(=O)O)O,-2.376164922,25.0,Reaxys,ethanol,CCO,,,,,,
SEHYCGWJONNDKG-OCEACIFDSA-N,c1ccc(cc1)N(c1ccccc1)c1ccc(cc1)/N=N/c1ccc(cc1)N(=O)=O,-2.221129619,25.0,Reaxys,ethanol,CCO,,,,,,
SIOXPEMLGUPBBT-UHFFFAOYSA-N,c1ccnc(c1)C(=O)O,-0.357903099,25.0,Reaxys,ethanol,CCO,,,,,,
SKKUAUZTZZRYPW-UHFFFAOYSA-N,c1ccc2c(c1)c(cc(c2Cl)[N+](=O)[O-])[N+](=O)[O-],-2.152037413,25.0,Reaxys,ethanol,CCO,,,,,,
SKZKKFZAGNVIMN-UHFFFAOYSA-N,c1ccc(c(c1)C(=O)N)O,-0.2924297,20.0,Reaxys,ethanol,CCO,,,,,,
SLAMLWHELXOEJZ-UHFFFAOYSA-N,c1ccc(c(c1)C(=O)O)[N+](=O)[O-],0.346342884,25.0,Reaxys,ethanol,CCO,,,,,,
SLXKOJJOQWFEFD-UHFFFAOYSA-N,C(CCC(=O)[O-])CC[NH3+],-2.721651726,25.0,Reaxys,ethanol,CCO,,,,,,
SMNDYUVBFMFKNZ-UHFFFAOYSA-N,c1cc(C(=O)O)oc1,0.551813258,24.5,Reaxys,ethanol,CCO,,,,,,
SMXPXFWPPUYMKY-ZAUJTXRMSA-N,c1ccc(cc1)/C=C/C=N/NC(=O)C(=O)N,-3.336913804,20.0,Reaxys,ethanol,CCO,,,,,,
SMYZJQPSSQUXLM-FWJOYPJLSA-N,C[C@@H]1CCC[C@H](C1)NC(=O)c1ccc2ccccc2c1,-0.300009502,26.0,Reaxys,ethanol,CCO,,,,,,
SNIOPGDIGTZGOP-UHFFFAOYSA-N,C(C(CO[N+](=O)[O-])O[N+](=O)[O-])O[N+](=O)[O-],0.213147688,20.0,Reaxys,ethanol,CCO,,,,,,
SNNRJYFQCCUBLH-UHFFFAOYSA-N,CCCCCCC(CC(=O)N(c1ccc(cc1)N(C)C)C(=O)Nc1ccc(cc1)N(C)C)O,-1.782676142,20.0,Reaxys,ethanol,CCO,,,,,,
SOSYJTMKRFNDSU-UHFFFAOYSA-N,CC(C)(C)OC(=O)NC(=O)N,-1.345451013,15.0,Reaxys,ethanol,CCO,,,,,,
SPJQDMKTFSPPLO-UHFFFAOYSA-N,CC(C)(C)S(=O)(=O)C(C)(C)C,-0.044315724,20.0,Reaxys,ethanol,CCO,,,,,,
SPSSULHKWOKEEL-UHFFFAOYSA-N,Cc1c(cc(cc1[N+](=O)[O-])[N+](=O)[O-])[N+](=O)[O-],-1.141621798,22.0,Reaxys,ethanol,CCO,,,,,,
SRBFZHDQGSBBOR-IOVATXLUSA-N,C1[C@H]([C@@H]([C@H](C(O)O1)O)O)O,-1.245804519,25.0,Reaxys,ethanol,CCO,,,,,,
SSVSELJXJJCANX-UHFFFAOYSA-N,CCCCCCCCCCCCCCCC(=O)NN,-2.475452859,19.0,Reaxys,ethanol,CCO,,,,,,
STFUKMOFLHNGMB-UHFFFAOYSA-N,CCCCCCCCC(=O)N(c1ccc(cc1)N(C)C)C(=O)Nc1ccc(cc1)N(C)C,-2.21336048,20.0,Reaxys,ethanol,CCO,,,,,,
SVHAKCBZAPWQHW-UHFFFAOYSA-N,CC(=O)OC1C(C(C(C(C1OC(=O)C)OC(=O)C)OC(=O)C)OC(=O)C)Br,-3.48023793,20.0,Reaxys,ethanol,CCO,,,,,,
SWJPEBQEEAHIGZ-UHFFFAOYSA-N,c1cc(ccc1Br)Br,-0.867589008,25.0,Reaxys,ethanol,CCO,,,,,,
SWVDVLJUASRKES-UHFFFAOYSA-N,CCC(C(C)C)OC(=O)NC(=O)N,-1.140823795,20.0,Reaxys,ethanol,CCO,,,,,,
SXNXKULRKDCYLM-UHFFFAOYSA-N,c1ccc(cc1)Cn1cc(CO)nn1,0.154186179,24.99,Reaxys,ethanol,CCO,,,,,,
SZTDSGCADFWGKM-UHFFFAOYSA-N,C(CO)CP(=O)(CCCO)CCCO,-0.411966222,24.96,Reaxys,ethanol,CCO,,,,,,
TUNFSRHWOTWDNC-UHFFFAOYSA-N,CCCCCCCCCCCCCC(=O)O,-0.184944653,20.0,Reaxys,ethanol,CCO,,,,,,
TWMZHJMQNOMUGB-IBGZPJMESA-N,CC(C)(CO)[C@@H](C(=O)NCCC(=O)NCCSC(=O)c1cccc2ccccc12)O,-0.880152424,20.0,Reaxys,ethanol,CCO,,,,,,
TWRPLCZREDAZEZ-DVKNGEFBSA-N,C([C@@H]1[C@H]([C@@H]([C@H]([C@@H](O1)O[N+](=O)[O-])O[N+](=O)[O-])O[N+](=O)[O-])O[N+](=O)[O-])O[N+](=O)[O-],-1.102460505,20.0,Reaxys,ethanol,CCO,,,,,,
TXXHDPDFNKHHGW-ZPUQHVIOSA-N,C(=C\C(=O)O)/C=C/C(=O)O,-2.000113088,25.0,Reaxys,ethanol,CCO,,,,,,
TYKNIXUIZSBZSO-UHFFFAOYSA-N,CC1(C)C2CCC1(C)C(=O)C2Cl,-0.169738033,20.0,Reaxys,ethanol,CCO,,,,,,
TYMLOMAKGOJONV-UHFFFAOYSA-N,c1cc(ccc1N)[N+](=O)[O-],-0.47235575,25.0,Reaxys,ethanol,CCO,,,,,,
TZXKOCQBRNJULO-UHFFFAOYSA-N,Cc1c(c(=O)ccn1C)O,-1.610709477,25.04,Reaxys,ethanol,CCO,,,,,,
UATJOMSPNYCXIX-UHFFFAOYSA-N,c1c(cc(cc1[N+](=O)[O-])[N+](=O)[O-])[N+](=O)[O-],-1.158333962,18.0,Reaxys,ethanol,CCO,,,,,,
UBEZGTUPVRSCCP-UHFFFAOYSA-N,CN(C)c1ccc(cc1)NC(=O)N(C=O)c1ccc(cc1)N(C)C,-2.274082705,20.0,Reaxys,ethanol,CCO,,,,,,
UCAHGXFXBRSTPX-UHFFFAOYSA-N,c1cc(c(cc1[N+](=O)[O-])[N+](=O)[O-])Oc1c(cc(cc1[N+](=O)[O-])[N+](=O)[O-])[N+](=O)[O-],-1.928721723,23.0,Reaxys,ethanol,CCO,,,,,,
UCTLEUMRWILLKV-UHFFFAOYSA-N,CCCCCCCCCCCCCCCCC1C(=O)N=C(N)S1,-3.68711345,25.0,Reaxys,ethanol,CCO,,,,,,
UFWIBTONFRDIAS-UHFFFAOYSA-N,c1ccc2ccccc2c1,-0.187415696,25.0,Reaxys,ethanol,CCO,,,,,,
UGJBHEZMOKVTIM-UHFFFAOYSA-N,C(C(=O)O)NC=O,-0.522870319,25.0,Reaxys,ethanol,CCO,,,,,,
UHDMEVYKMXIBQC-UHFFFAOYSA-N,CCCCCCCCCCCC(=O)OCC(=O)c1ccccc1,-0.77226716,25.0,Reaxys,ethanol,CCO,,,,,,
UHGYYQUSAMHAAH-UHFFFAOYSA-N,C(CCCCCNCCCCCCN)CCCCC(=O)O,-2.477822797,20.0,Reaxys,ethanol,CCO,,,,,,
UHWJMXASZSKFEO-UHFFFAOYSA-N,c1cc(c(cc1[N+](=O)[O-])[N+](=O)[O-])Nc1ccc(cc1[N+](=O)[O-])[N+](=O)[O-],-2.938281855,15.0,Reaxys,ethanol,CCO,,,,,,
UHWURQRPEIFIAK-UHFFFAOYSA-N,Cc1c(cc2c(c1[N+](=O)[O-])C(C)(C)CC2(C)C)[N+](=O)[O-],-1.702185548,15.0,Reaxys,ethanol,CCO,,,,,,
UHZUKUTVMBPNLC-OQLLNIDSSA-N,c1ccc(c(c1)C(=O)NO)/N=C/c1ccccn1,-1.537367482,20.0,Reaxys,ethanol,CCO,,,,,,
UJHIVOCEDKLHRM-UHFFFAOYSA-N,CCOC(=O)c1ccc(cc1C)NC(=O)C,-0.493410444,20.0,Reaxys,ethanol,CCO,,,,,,
UJKWVVLRVCSFBB-HNNXBMFYSA-N,CC(C)(CO)[C@H](C(=O)NCCC(=O)NCCSC(=O)c1ccccc1)O,-0.468666514,20.0,Reaxys,ethanol,CCO,,,,,,
UMNBCVIEWOTTAP-UHFFFAOYSA-N,CCCCC(=O)NNC(=O)CCCC,-0.549591303,20.0,Reaxys,ethanol,CCO,,,,,,
UNMGJBOGCRAMHG-UHFFFAOYSA-N,CC(C)CCCOC(=O)NC(=O)N,-1.601661013,14.0,Reaxys,ethanol,CCO,,,,,,
UNMSQGCYXOMOAC-UHFFFAOYSA-N,C(CO[N+](=O)[O-])N(c1c(cc(cc1[N+](=O)[O-])[N+](=O)[O-])[N+](=O)[O-])[N+](=O)[O-],-2.620276486,25.0,Reaxys,ethanol,CCO,,,,,,
URSRLBRZMUPNKP-CYYJNZCTSA-N,CCCCN(CCCC)CCOC(=O)c1ccc(cc1)/N=N/c1ccc(cc1N)N,-0.886878183,25.0,Reaxys,ethanol,CCO,,,,,,
USEVKDWMVPLICN-UHFFFAOYSA-N,CCC(=O)NCCNC(=O)CC,-0.09622215,25.0,Reaxys,ethanol,CCO,,,,,,
UTMLDQRMPCLKEF-UHFFFAOYSA-N,CN(C)c1ccc(cc1)C(=Nc1ccc(cc1)N)c1ccc(cc1)N(C)C,-1.921003744,20.0,Reaxys,ethanol,CCO,,,,,,
UTQSUDKKBZEXHH-UHFFFAOYSA-N,c1ccc(c(c1)Cl)Nc1ccc(cc1N)Cl,-1.801285343,20.0,Reaxys,ethanol,CCO,,,,,,
UUQHKWMIDYRWHH-UHFFFAOYSA-N,Cc1cc(c(C)c(c1C(=O)OC)O)O,0.205744016,19.99,Reaxys,ethanol,CCO,,,,,,
UVOTVQIUSZDLAM-GGLFOPPFSA-N,CC(=O)C1=CC[C@H]2[C@@H]3CCC4=CC(=O)C=C[C@]4(C)[C@H]3[C@H](C[C@]12C)O,0.562124627,24.99,Reaxys,ethanol,CCO,,,,,,
UVSMNLNDYGZFPF-UHFFFAOYSA-N,c1cc2c(c(c1)N)C(=O)N(C1CCC(=O)NC1=O)C2=O,-2.436556992,24.0,Reaxys,ethanol,CCO,,,,,,
UWVQXJFNNKWNLZ-UHFFFAOYSA-N,Cc1ccc(cc1)C(c1ccc(C)cc1)(C(c1ccc(C)cc1)(c1ccc(C)cc1)O)O,-3.023835587,25.0,Reaxys,ethanol,CCO,,,,,,
UYUUAUOYLFIRJG-UHFFFAOYSA-N,COc1ccc(cc1)P(c1ccc(cc1)OC)c1ccc(cc1)OC,-2.19358722,25.1,Reaxys,ethanol,CCO,,,,,,
VDLSNXQRYWSHGB-UHFFFAOYSA-N,CCOC(=O)C1C(=O)CC(C)(C(C1c1ccccc1)C(=O)OCC)O,-1.56390915,20.0,Reaxys,ethanol,CCO,,,,,,
VDVUCLWJZJHFAV-UHFFFAOYSA-N,CC1(C)CC(CC(C)(C)N1)O,0.361215791,24.99,Reaxys,ethanol,CCO,,,,,,
VEQOALNAAJBPNY-UHFFFAOYSA-N,Cc1cc(=O)n(c2ccccc2)n1C,0.492373776,22.0,Reaxys,ethanol,CCO,,,,,,
VFQXVTODMYMSMJ-UHFFFAOYSA-N,c1cnccc1C(=O)N,-0.241710093,25.0,Reaxys,ethanol,CCO,,,,,,
VGEREEWJJVICBM-UHFFFAOYSA-N,c1cc(ccc1CCC(=O)c1c(cc(cc1O)O)O)O,-0.178478611,25.04,Reaxys,ethanol,CCO,,,,,,
VHIYCPCXACHVJM-KQQUZDAGSA-N,CCOC(=O)/C=C/C=C/C(=O)OCC,-0.406026263,25.0,Reaxys,ethanol,CCO,,,,,,
VHNQIURBCCNWDN-UHFFFAOYSA-N,c1cc(N)nc(c1)N,0.542212284,23.99,Reaxys,ethanol,CCO,,,,,,
VHUNCYDAXJGCLO-AHMNSWSSSA-N,COC(=O)c1ccccc1O[C@H]1[C@@H]([C@H]([C@@H]([C@@H](CO[C@H]2[C@@H]([C@H]([C@@H](CO2)O)O)O)O1)O)O)O,-2.157324451,19.0,Reaxys,ethanol,CCO,,,,,,
VKYKSIONXSXAKP-UHFFFAOYSA-N,C1N2CN3CN1CN(C2)C3,-0.788570894,20.0,Reaxys,ethanol,CCO,,,,,,
VLHGEHPRQNEXJO-UHFFFAOYSA-N,c1ccc(cc1)C(C(c1ccccc1)C(=O)c1ccccc1)C1C(=O)c2ccccc2C1=O,-2.332946187,20.0,Reaxys,ethanol,CCO,,,,,,