StdInChIKey,SMILES,LogS,T,Source,Solvent,Solvent_SMILES,Smilesa,REF1,REF2,REF3,REF4,REF5
BGNCCUHEGHNNAP-UHFFFAOYSA-N,,-3.018,,ONSchallenge,water,O,S(=O)(=O)(N)c1sc2S(=O)(=O)CCC(=O)c2c1,http://dx.doi.org/10.1021/ci800406y,,,,
BKIMMITUMNQMOS-UHFFFAOYSA-N,,-5.88,,ONSchallenge,water,O,C(CCCC)CCCC,http://dx.doi.org/10.1021/ci800406y,,,,
BMLIZLVNXIYGCK-UHFFFAOYSA-N,,-2.91256,,ONSchallenge,water,O,Clc1ccc(NC(=O)N(C)C)cc1,http://eprints.ucl.ac.uk/24535/,http://dx.doi.org/10.1021/ci800406y,,,
BNUHAJGCKIQFGE-UHFFFAOYSA-N,,-2.41,,ONSchallenge,water,O,O=[N+]([O-])c1ccc(OC)cc1,http://dx.doi.org/10.1021/ci800406y,http://dx.doi.org/10.1021/ci800406y,,,
BOCJQSFSGAZAPQ-UHFFFAOYSA-N,,-5.54,,ONSchallenge,water,O,Clc1c2C(=O)c3c(C(=O)c2ccc1)cccc3,http://dx.doi.org/10.1080/00319100600805448,,,,
BOJWTAQWPVBIPG-UHFFFAOYSA-N,,-1.579,,ONSchallenge,water,O,Fc1c([N+](=O)[O-])cc(C(=O)O)cc1,http://dx.doi.org/10.1021/ci800406y,,,,
BRBKOPJOKNSWSG-UHFFFAOYSA-N,,-1.98497,,ONSchallenge,water,O,S(=O)(=O)(N=C(N)N)c1ccc(N)cc1,http://dx.doi.org/10.1021/ci800406y,http://dx.doi.org/10.1021/ci800406y,,,
BRLQWZUYTZBJKN-UHFFFAOYSA-N,,-0.15,,ONSchallenge,water,O,ClCC1OC1,http://dx.doi.org/10.1021/ci800406y,,,,
BRPOVUNVTUCYNN-UHFFFAOYSA-N,,-3.912,,ONSchallenge,water,O,Fc1c(N2C(CC)C(N)C2)cc2n(C3CC3)cc(C(=O)O)c(=O)c2c1,http://dx.doi.org/10.1021/ci800406y,,,,
BRUZQRBVNRKLJG-UHFFFAOYSA-N,,-0.3,,ONSchallenge,water,O,O=C(OCC(C)C)N,http://dx.doi.org/10.1021/ci800406y,,,,
BTANRVKWQNVYAZ-UHFFFAOYSA-N,,0.43,,ONSchallenge,water,O,OC(CC)C,http://dx.doi.org/10.1021/ci800406y,http://dx.doi.org/10.1021/ci800406y,,,
BTJIUGUIPKRLHP-UHFFFAOYSA-N,,-0.74,,ONSchallenge,water,O,O=[N+]([O-])c1ccc(O)cc1,http://dx.doi.org/10.1021/ci800406y,,,,
BUNFNRVLMKHKIT-UHFFFAOYSA-N,,-1.91,,ONSchallenge,water,O,O=[N+]([O-])c1c(NC(=O)C)cccc1,http://dx.doi.org/10.1021/ci800406y,,,,
BWXSXZAIQQSFPW-UHFFFAOYSA-N,,-3.656,,ONSchallenge,water,O,O=[N+]([O-])c1cc2C(=O)OC(CC)(CC)c2cc1,http://dx.doi.org/10.1021/ci800406y,,,,
BXNJHAXVSOCGBA-UHFFFAOYSA-N,,-4.48,,ONSchallenge,water,O,O(C)c1cc2[nH]c3c(C)nccc3c2cc1,http://dx.doi.org/10.1021/ci800406y,,,,
BXWNKGSJHAJOGX-UHFFFAOYSA-N,,-7.260001,,ONSchallenge,water,O,OCCCCCCCCCCCCCCCC,http://dx.doi.org/10.1021/ci800406y,,,,
BYEVBITUADOIGY-UHFFFAOYSA-N,,-3.8,,ONSchallenge,water,O,O=C(OCC)CCCCCCCC,http://dx.doi.org/10.1021/ci800406y,http://dx.doi.org/10.1021/ci800406y,,,
BZHMBWZPUJHVEE-UHFFFAOYSA-N,,-4.26,,ONSchallenge,water,O,C(CC(C)C)(C)C,http://dx.doi.org/10.1021/ci800406y,http://dx.doi.org/10.1021/ci800406y,,,
BZKPWHYZMXOIDC-UHFFFAOYSA-N,,-2.43058,,ONSchallenge,water,O,S(=O)(=O)(N)c1sc(NC(=O)C)nn1,http://www.springerlink.com/content/um5p375020237780/,http://dx.doi.org/10.1021/ci800406y,http://dx.doi.org/10.1021/ci800406y,http://dx.doi.org/10.1021/ci800406y,
BZLVMXJERCGZMT-UHFFFAOYSA-N,,-0.24,,ONSchallenge,water,O,O(C(C)(C)C)C,http://dx.doi.org/10.1021/ci800406y,http://dx.doi.org/10.1021/ci800406y,,,
BZTYNSQSZHARAZ-UHFFFAOYSA-N,,-6.21,,ONSchallenge,water,O,Clc1c(c2ccc(Cl)cc2)ccc(Cl)c1,http://dx.doi.org/10.1021/ci800406y,http://dx.doi.org/10.1021/ci800406y,,,
CAQHPYSDQFDJAL-UHFFFAOYSA-N,,-2.937,,ONSchallenge,water,O,O=C1C(=NO)c2c(cccc2)C=C1,http://dx.doi.org/10.1021/ci800406y,,,,
CBFCDTFDPHXCNY-UHFFFAOYSA-N,,-8.169989,,ONSchallenge,water,O,C(CCCCCCCCCC)CCCCCCCCC,http://dx.doi.org/10.1021/ci800406y,,,,
CCGPUGMWYLICGL-UHFFFAOYSA-N,,-4.77,,ONSchallenge,water,O,Clc1c(Cl)ccc(NC(=O)N(CCCC)C)c1,http://dx.doi.org/10.1021/ci800406y,,,,
CDAWCLOXVUBKRW-UHFFFAOYSA-N,,-0.72,,ONSchallenge,water,O,Oc1c(N)cccc1,http://dx.doi.org/10.1021/ci800406y,,,,
CDOZDBSBBXSXLB-UHFFFAOYSA-N,,-2.145,,ONSchallenge,water,O,N(C(CN1c2c(Sc3c1cccc3)cccc2)C)(CC)CC,http://dx.doi.org/10.1021/ci800406y,,,,
CDVNZMKTJIBBBV-UHFFFAOYSA-N,,-2.6,,ONSchallenge,water,O,O=[N+]([O-])c1c(C)c(C(=O)O)cc([N+](=O)[O-])c1,http://dx.doi.org/10.1080/00319104.2010.538848,,,,
CEOCDNVZRAIOQZ-UHFFFAOYSA-N,,-5.654971,,ONSchallenge,water,O,Clc1c(Cl)c(Cl)cc(Cl)c1Cl,http://dx.doi.org/10.1021/ci800406y,http://dx.doi.org/10.1021/ci800406y,,,
CERQOIWHTDAKMF-UHFFFAOYSA-N,,0.01,,ONSchallenge,water,O,O=C(O)C(=C)C,http://dx.doi.org/10.1021/ci800406y,,,,
CFBYEGUGFPZCNF-UHFFFAOYSA-N,,-1.96,,ONSchallenge,water,O,O=[N+]([O-])c1c(OC)cccc1,http://dx.doi.org/10.1021/ci800406y,http://dx.doi.org/10.1021/ci800406y,,,
CGBCCZZJVKUAMX-UHFFFAOYSA-N,,-4.95,,ONSchallenge,water,O,ClC1=CC2C(C3(C1=CC(=O)C=C3)C)CCC1(C2CCC1(OC(=O)C)C(=O)C)C,http://dx.doi.org/10.1021/ci800406y,,,,
CHMBIJAOCISYEW-UHFFFAOYSA-N,,-0.98,,ONSchallenge,water,O,O=C(Nc1ccc(N)cc1)C,http://dx.doi.org/10.1021/ci800406y,,,,
CHNUNORXWHYHNE-UHFFFAOYSA-N,,-5.69,,ONSchallenge,water,O,Clc1c(OC(C)C)cc(n2c(=O)oc(C(C)(C)C)n2)c(Cl)c1,http://dx.doi.org/10.1021/ci800406y,,,,
CHNXZKVNWQUJIB-UHFFFAOYSA-N,,-5.66,,ONSchallenge,water,O,O=C1C=C2C(C)(C3C(C4C(C)(C(O)(C#C)CC4)CC3)CC2)CC1,http://dx.doi.org/10.1021/ci800406y,,,,
CHVJITGCYZJHLR-UHFFFAOYSA-N,,-2.15,,ONSchallenge,water,O,C1=CC=CCC=C1,http://dx.doi.org/10.1021/ci800406y,http://dx.doi.org/10.1021/ci800406y,,,
CIWBSHSKHKDKBQ-JLAZNSOCSA-N,,0.239374,,ONSchallenge,water,O,O=C1C(=C(O)[C@@H]([C@@H](O)CO)O1)O,http://dx.doi.org/10.1016/0021-9614(89)90161-4,http://dx.doi.org/10.1021/je800056h,,,
CIWBSHSKHKDKBQ-UHFFFAOYSA-N,,-0.805,,ONSchallenge,water,O,O=C1C(=C(O)C(C(O)CO)O1)O,http://dx.doi.org/10.1021/ci800406y,,,,
CJHXCRMKMMBYJQ-UHFFFAOYSA-N,,-2.24,,ONSchallenge,water,O,Oc1c(CCCC)c(C)nc(N(C)C)n1,http://dx.doi.org/10.1021/ci800406y,,,,
CKRZKMFTZCFYGB-UHFFFAOYSA-N,,-0.74,,ONSchallenge,water,O,ONc1ccccc1,http://dx.doi.org/10.1021/ci800406y,,,,
CMSMOCZEIVJLDB-UHFFFAOYSA-N,,-0.815,,ONSchallenge,water,O,ClCCN(CCCl)P1(=O)OCCCN1,http://dx.doi.org/10.1021/ci800406y,,,,
CMVQZRLQEOAYSW-UHFFFAOYSA-N,,-3.48,,ONSchallenge,water,O,Clc1c(Cl)cccc1[N+](=O)[O-],http://dx.doi.org/10.1021/ci800406y,,,,
CNGDZXAWOIPFFX-UHFFFAOYSA-N,,-4.473,,ONSchallenge,water,O,S(=O)(=O)(N)c1scc(C(=O)c2ccc(OC)cc2)c1,http://dx.doi.org/10.1021/ci800406y,,,,
COLNVLDHVKWLRT-UHFFFAOYSA-N,,-0.74473,,ONSchallenge,water,O,O=C(O)C(N)Cc1ccccc1,http://books.google.com/books?id=tfpQJjWcRs4C,,,,
CPGPAVAKSZHMBP-UHFFFAOYSA-N,,-5.89,,ONSchallenge,water,O,Cc1c2c(cc3c1cccc3)cccc2,http://dx.doi.org/10.1021/ci800406y,http://dx.doi.org/10.1021/ci800406y,,,
CPNGPNLZQNNVQM-UHFFFAOYSA-N,,0.02,,ONSchallenge,water,O,n1c2nccnc2cnc1,http://dx.doi.org/10.1021/ci800406y,,,,
CQRYARSYNCAZFO-UHFFFAOYSA-N,,-0.29,,ONSchallenge,water,O,OCc1c(O)cccc1,http://dx.doi.org/10.1021/ci800406y,,,,
CSHWQDPOILHKBI-UHFFFAOYSA-N,,-8.794931,,ONSchallenge,water,O,c12c3c4c5c(c1cccc2ccc3)cccc5ccc4,http://dx.doi.org/10.1021/ci800406y,http://dx.doi.org/10.1021/ci800406y,,,
CTJMNBROBOZHAP-UHFFFAOYSA-N,,-5.324,,ONSchallenge,water,O,Fc1c(N2CC(N)C2)cc2n(C3CC3)cc(C(=O)O)c(=O)c2c1,http://dx.doi.org/10.1021/ci800406y,,,,
CULUWZNBISUWAS-UHFFFAOYSA-N,,-2.81,,ONSchallenge,water,O,O=[N+]([O-])c1n(CC(=O)NCc2ccccc2)ccn1,http://dx.doi.org/10.1021/ci800406y,,,,
CVQODEWAPZVVBU-UHFFFAOYSA-N,,-2.58,,ONSchallenge,water,O,O=C(Oc1cc(C)cc(C)c1)NC,http://dx.doi.org/10.1021/ci800406y,,,,
CVRALZAYCYJELZ-UHFFFAOYSA-N,,-5.66,,ONSchallenge,water,O,Brc1c(Cl)cc(OP(=S)(OC)c2ccccc2)c(Cl)c1,http://dx.doi.org/10.1021/ci800406y,,,,
CVUGPAFCQJIYDT-UHFFFAOYSA-N,,-6.62,,ONSchallenge,water,O,ClC(Cl)(Cl)C(c1c(Cl)cccc1)c1ccc(Cl)cc1,http://dx.doi.org/10.1021/ci800406y,,,,
CWJSHJJYOPWUGX-UHFFFAOYSA-N,,-3.38497,,ONSchallenge,water,O,Clc1cc(NC(=O)OC(C)C)ccc1,http://dx.doi.org/10.1021/ci800406y,http://dx.doi.org/10.1021/ci800406y,,,
CWRYPZZKDGJXCA-UHFFFAOYSA-N,,-4.54,,ONSchallenge,water,O,c12c3cccc1CCc2ccc3,http://dx.doi.org/10.1016/S0378-3812(02)00077-8,http://dx.doi.org/10.1021/ci800406y,,,
CXOFVDLJLONNDW-UHFFFAOYSA-N,,-4.10651,,ONSchallenge,water,O,O=C1C(c2ccccc2)(c2ccccc2)NC(=O)N1,http://www.springerlink.com/content/um5p375020237780/,http://dx.doi.org/10.1021/ci800406y,http://dx.doi.org/10.1021/ci800406y,,
CXWXQJXEFPUFDZ-UHFFFAOYSA-N,,-4.37,,ONSchallenge,water,O,c12c(cccc1)CCCC2,http://dx.doi.org/10.1021/ci800406y,,,,
CYFLXLSBHQBMFT-UHFFFAOYSA-N,,-2.44,,ONSchallenge,water,O,S(=O)(=O)(Nc1oc(C)c(C)n1)c1ccc(N)cc1,http://dx.doi.org/10.1021/ci800406y,,,,
CZGCEKJOLUNIFY-UHFFFAOYSA-N,,-2.92,,ONSchallenge,water,O,Clc1ccc([N+](=O)[O-])cc1,http://dx.doi.org/10.1021/ci800406y,http://dx.doi.org/10.1021/ci800406y,,,
CZIHNRWJTSTCEX-UHFFFAOYSA-N,,-4.235,,ONSchallenge,water,O,O=C(Nc1cc2c(c3c(cccc3)C2)cc1)C,http://dx.doi.org/10.1021/ci800406y,,,,
CZMRCDWAGMRECN-UGDNZRGBSA-N,,0.79,,ONSchallenge,water,O,O([C@@H]1[C@H](O)[C@@H](O)[C@H](O)[C@@H](CO)O1)[C@@]1(CO)[C@@H](O)[C@H](O)[C@@H](CO)O1,http://dx.doi.org/10.1021/ci800406y,,,,
CZPWVGJYEJSRLH-UHFFFAOYSA-N,,1.1,,ONSchallenge,water,O,n1cnccc1,http://dx.doi.org/10.1021/ci800406y,,,,
DBABZHXKTCFAPX-UHFFFAOYSA-N,,-4.021,,ONSchallenge,water,O,S(=O)(=O)(N(CCC)CCC)c1ccc(C(=O)O)cc1,http://dx.doi.org/10.1021/ci800406y,,,,
DBPWSSGDRRHUNT-UHFFFAOYSA-N,,-4.71,,ONSchallenge,water,O,O=C(C)C1(O)C2(C)C(C3C(C4(C)C(=CC(=O)CC4)CC3)CC2)CC1,http://dx.doi.org/10.1021/ci800406y,,,,
DCAYPVUWAIABOU-UHFFFAOYSA-N,,-8.400008,,ONSchallenge,water,O,C(CCCCCCCC)CCCCCCC,http://dx.doi.org/10.1021/ci800406y,,,,
DCUJJWWUNKIJPH-UHFFFAOYSA-N,,-3.76,,ONSchallenge,water,O,ClC(Cl)(Cl)c1nc(Cl)ccc1,http://dx.doi.org/10.1021/ci800406y,,,,
DDUHZTYCFQRHIY-UHFFFAOYSA-N,,-4.65446,,ONSchallenge,water,O,Clc1c(OC)cc(OC)c2C(=O)C3(C(=CC(=O)CC3C)OC)Oc12,http://dx.doi.org/10.1021/ci800406y,http://dx.doi.org/10.1021/ci800406y,,,
DEKWZWCFHUABHE-UHFFFAOYSA-N,,-5.84,,ONSchallenge,water,O,Clc1ccc(C(CC(=O)C)c2c(=O)oc3c(c2O)cccc3)cc1,http://dx.doi.org/10.1021/ci800406y,,,,
DEWLEGDTCGBNGU-UHFFFAOYSA-N,,-0.11,,ONSchallenge,water,O,ClCC(O)CCl,http://dx.doi.org/10.1021/ci800406y,http://dx.doi.org/10.1021/ci800406y,,,
DFBKLUNHFCTMDC-PICURKEMSA-N,,-6.29,,ONSchallenge,water,O,ClC1(Cl)[C@]2(Cl)C(=C(Cl)[C@@]1(Cl)[C@@H]1[C@H]2[C@H]2[C@@H]3O[C@@H]3[C@@H]1C2)Cl,http://dx.doi.org/10.1021/ci800406y,,,,
DFCAFRGABIXSDS-UHFFFAOYSA-N,,-3.4,,ONSchallenge,water,O,S(C(=O)N(CC)C1CCCCC1)CC,http://dx.doi.org/10.1021/ci800406y,,,,
DFOXKPDFWGNLJU-UHFFFAOYSA-N,,-0.62,,ONSchallenge,water,O,OC(C(C)(C)C)C,http://dx.doi.org/10.1021/ci800406y,http://dx.doi.org/10.1021/ci800406y,,,
DFPAKSUCGFBDDF-UHFFFAOYSA-N,,0.61,,ONSchallenge,water,O,O=C(N)c1cnccc1,http://dx.doi.org/10.1021/ci800406y,,,,
DFXQXFGFOLXAPO-UHFFFAOYSA-N,,-2.66815,,ONSchallenge,water,O,Clc1c([N+](=O)[O-])cc(C(=O)O)cc1,http://books.google.com/books?id=DVTelD-xSA4C,http://dx.doi.org/10.1021/ci800406y,,,
DHKHKXVYLBGOIT-UHFFFAOYSA-N,,-0.43,,ONSchallenge,water,O,O(C(OCC)C)CC,http://dx.doi.org/10.1021/ci800406y,http://dx.doi.org/10.1021/ci800406y,,,
DHMQDGOQFOQNFH-UHFFFAOYSA-N,,0.521792,,ONSchallenge,water,O,O=C(O)CN,http://books.google.com/books?id=tfpQJjWcRs4C,,,,
DHXVGJBLRPWPCS-UHFFFAOYSA-N,,-0.03,,ONSchallenge,water,O,O1CCCCC1,http://dx.doi.org/10.1021/ci800406y,http://dx.doi.org/10.1021/ci800406y,,,
DJHHDLMTUOLVHY-UHFFFAOYSA-N,,-8.770062,,ONSchallenge,water,O,Clc1c(Cl)c(Cl)c2Oc3c(Oc2c1Cl)cccc3,http://dx.doi.org/10.1021/ci800406y,,,,
DJPZSBANTAQNFN-UHFFFAOYSA-N,,-5.18,,ONSchallenge,water,O,O=C(OC1C2(C)C(C3C(C4(C)C(=CC(=O)CC4)CC3)CC2)CC1)C,http://dx.doi.org/10.1021/ci800406y,,,,
DKMROQRQHGEIOW-UHFFFAOYSA-N,,-0.959,,ONSchallenge,water,O,O=C(OCC)CCC(=O)OCC,http://dx.doi.org/10.1021/ci800406y,http://dx.doi.org/10.1021/ci800406y,,,
DLFVBJFMPXGRIB-UHFFFAOYSA-N,,1.58,,ONSchallenge,water,O,O=C(N)C,http://dx.doi.org/10.1021/ci800406y,http://dx.doi.org/10.1021/ci800406y,,,
DLKQHBOKULLWDQ-UHFFFAOYSA-N,,-4.35,,ONSchallenge,water,O,Brc1c2c(ccc1)cccc2,http://dx.doi.org/10.1021/ci800406y,,,,
DLVAUVPZQHGFJC-UHFFFAOYSA-N,,-0.918,,ONSchallenge,water,O,O=C(N(CC(=O)N)C)COC(=O)c1ccccc1,http://dx.doi.org/10.1021/ci800406y,,,,
DMDGGSIALPNSEE-UHFFFAOYSA-N,,-3.02,,ONSchallenge,water,O,S(=O)(=O)(N)c1c(C(F)(F)F)cc2NCNS(=O)(=O)c2c1,http://www.springerlink.com/content/um5p375020237780/,http://dx.doi.org/10.1021/ci800406y,,,
DMEGYFMYUHOHGS-UHFFFAOYSA-N,,-3.52,,ONSchallenge,water,O,C1CCCCCC1,http://dx.doi.org/10.1021/ci800406y,,,,
DNJIEGIFACGWOD-UHFFFAOYSA-N,,-0.6,,ONSchallenge,water,O,SCC,http://dx.doi.org/10.1021/ci800406y,,,,
DOFZAZXDOSGAJZ-UHFFFAOYSA-N,,-4.23,,ONSchallenge,water,O,S=P(SCCSCC)(OCC)OCC,http://dx.doi.org/10.1021/ci800406y,,,,
DOIRQSBPFJWKBE-UHFFFAOYSA-N,,-4.33587,,ONSchallenge,water,O,O=C(OCCCC)c1c(C(=O)OCCCC)cccc1,http://dx.doi.org/10.1021/ci800406y,http://dx.doi.org/10.1021/ci800406y,,,
DOWJXOHBNXRUOD-UHFFFAOYSA-N,,-5.85,,ONSchallenge,water,O,Cc1c2c(c3c(cc2)cccc3)ccc1,http://dx.doi.org/10.1021/ci800406y,,,,
DPJCXCZTLWNFOH-UHFFFAOYSA-N,,-1.96,,ONSchallenge,water,O,O=[N+]([O-])c1c(N)cccc1,http://dx.doi.org/10.1021/ci800406y,,,,
DPSPPJIUMHPXMA-UHFFFAOYSA-N,,-3.7326,,ONSchallenge,water,O,Fc1cc2c(=O)c(C(=O)O)cn3C(C)CCc(c23)c1,http://dx.doi.org/10.1021/ci800406y,,,,
DQJCHOQLCLEDLL-UHFFFAOYSA-N,,-2.07,,ONSchallenge,water,O,Cc1c2n3c(sc2ccc1)nnc3,http://dx.doi.org/10.1021/ci800406y,,,,
DQWPFSLDHJDLRL-UHFFFAOYSA-N,,0.43,,ONSchallenge,water,O,P(=O)(OCC)(OCC)OCC,http://dx.doi.org/10.1021/ci800406y,,,,
DQZCVNGCTZLGAQ-UHFFFAOYSA-N,,-2.36,,ONSchallenge,water,O,O=C(N(C)C)NC1CCCCCCC1,http://dx.doi.org/10.1021/ci800406y,,,,
DRLFMBDRBRZALE-UHFFFAOYSA-N,,-5.094,,ONSchallenge,water,O,O=C(NCCc1c2c([nH]c1)ccc(OC)c2)C,http://dx.doi.org/10.1021/ci800406y,,,,
DRUIESSIVFYOMK-UHFFFAOYSA-N,,-2.17,,ONSchallenge,water,O,ClC(Cl)(Cl)C#N,http://dx.doi.org/10.1021/ci800406y,,,,
DSBMOVYUOIIPDK-UHFFFAOYSA-N,,-1.795,,ONSchallenge,water,O,O=C1N(Cc2ccccc2)C(=O)NC1(C)C,http://dx.doi.org/10.1021/ci800406y,,,,
DSKJPMWIHSOYEA-UHFFFAOYSA-N,,-4.16,,ONSchallenge,water,O,S(=O)(=O)(Oc1c(CCCC)c(C)nc(NCC)n1)N(C)C,http://dx.doi.org/10.1021/ci800406y,,,,
DSRNRYQBBJQVCW-UHFFFAOYSA-N,,-2.56,,ONSchallenge,water,O,Clc1c(OC)ccc(NC(=O)N(C)C)c1,http://dx.doi.org/10.1021/ci800406y,,,,
DSSYKIVIOFKYAU-UHFFFAOYSA-N,,-1.95466,,ONSchallenge,water,O,O=C1C2(C)C(C)(C)C(C1)CC2,http://www.springerlink.com/content/um5p375020237780/,http://dx.doi.org/10.1021/ci800406y,http://dx.doi.org/10.1021/ci800406y,,
DTGKSKDOIYIVQL-UHFFFAOYSA-N,,-2.32,,ONSchallenge,water,O,OC1C2(C)C(C)(C)C(C1)CC2,http://dx.doi.org/10.1021/ci800406y,,,,
DTMRKGRREZAYAP-UHFFFAOYSA-N,,-9.159894,,ONSchallenge,water,O,Clc1c(Cl)c(Cl)cc(c1Cl)c1c(Cl)c(Cl)c(Cl)c(Cl)c1,http://dx.doi.org/10.1021/ci800406y,http://dx.doi.org/10.1021/ci800406y,,,
DVQVBLBKEXITIK-UHFFFAOYSA-N,,-3.74,,ONSchallenge,water,O,S(=O)(=O)(Nc1sc(C(C)(C)C)nn1)c1ccc(N)cc1,http://dx.doi.org/10.1021/ci800406y,,,,
DVVGIUUJYPYENY-UHFFFAOYSA-N,,0.96,,ONSchallenge,water,O,O=c1n(C)cccc1,http://dx.doi.org/10.1021/ci800406y,,,,
DWEPFAMAQPVFBH-UHFFFAOYSA-N,,-1.348,,ONSchallenge,water,O,S(=O)(=O)(N)c1sc2S(=O)CCC(O)c2c1,http://dx.doi.org/10.1021/ci800406y,,,,
DXXVCXKMSWHGTF-UHFFFAOYSA-N,,-5.906,,ONSchallenge,water,O,Clc1c(Oc2cc(OC)c([N+](=O)[O-])cc2)ccc(Cl)c1,http://dx.doi.org/10.1021/ci800406y,,,,
DYDNPESBYVVLBO-UHFFFAOYSA-N,,-0.68,,ONSchallenge,water,O,O=CNc1ccccc1,http://dx.doi.org/10.1021/ci800406y,,,,
DZMDPHNGKBEVRE-UHFFFAOYSA-N,,-3.99,,ONSchallenge,water,O,ClCCCCCCC,http://dx.doi.org/10.1021/ci800406y,,,,
DZQVFHSCSRACSX-UHFFFAOYSA-N,,-2.82,,ONSchallenge,water,O,S(=O)(=O)(Nc1ncc(C)cn1)c1ccc(N)cc1,http://dx.doi.org/10.1021/ci800406y,,,,
DZTHIGRZJZPRDV-UHFFFAOYSA-N,,-2.31,,ONSchallenge,water,O,O=C(O)C(NC(=O)C)Cc1c2c([nH]c1)cccc2,http://dx.doi.org/10.1021/ci800406y,,,,
DZZWHBIBMUVIIW-DTORHVGOSA-N,,-3.3711,,ONSchallenge,water,O,Fc1c(N2C[C@@H](C)N[C@@H](C)C2)c(F)c2n(C3CC3)cc(C(=O)O)c(=O)c2c1N,http://dx.doi.org/10.1021/ci800406y,,,,
FBPFZTCFMRRESA-UHFFFAOYSA-N,,1.09,,ONSchallenge,water,O,OC(C(O)C(O)CO)C(O)CO,http://dx.doi.org/10.1021/ci800406y,,,,
FCYQIDFMSYIAEB-UHFFFAOYSA-N,,-1.959,,ONSchallenge,water,O,O(COc1c2OC3C(O)CCC4C53c2c(cc1)CC4N(C)CC5)C,http://dx.doi.org/10.1021/ci800406y,,,,
FDDDEECHVMSUSB-UHFFFAOYSA-N,,-1.38663,,ONSchallenge,water,O,S(=O)(=O)(N)c1ccc(N)cc1,http://www.springerlink.com/content/um5p375020237780/,http://dx.doi.org/10.1021/ci800406y,,,
FDPIMTJIUBPUKL-UHFFFAOYSA-N,,-0.28,,ONSchallenge,water,O,O=C(CC)CC,http://dx.doi.org/10.1021/ci800406y,,,,
FEFQUIPMKBPKAR-UHFFFAOYSA-N,,-2.167,,ONSchallenge,water,O,O=C(N1C(=O)CCCCC1)c1ccccc1,http://dx.doi.org/10.1021/ci800406y,,,,
FEMZVDSBIXDODB-UHFFFAOYSA-N,,-5.639,,ONSchallenge,water,O,Fc1c(N2CC(N)(C)C2)c(F)cc2c(=O)c(C(=O)O)cn(C3CC3)c12,http://dx.doi.org/10.1021/ci800406y,,,,
FERIUCNNQQJTOY-UHFFFAOYSA-N,,-0.19,,ONSchallenge,water,O,O=C(O)CCC,http://dx.doi.org/10.1021/ci800406y,,,,
FFEARJCKVFRZRR-UHFFFAOYSA-N,,-0.42,,ONSchallenge,water,O,S(CCC(N)C(=O)O)C,http://dx.doi.org/10.1021/ci800406y,,,,
FFGPTBGBLSHEPO-UHFFFAOYSA-N,,-3.07931,,ONSchallenge,water,O,O=C(N)N1c2c(cccc2)C=Cc2c1cccc2,http://www.springerlink.com/content/um5p375020237780/,http://dx.doi.org/10.1021/ci800406y,,,
FGLBSLMDCBOPQK-UHFFFAOYSA-N,,-0.62,,ONSchallenge,water,O,O=[N+]([O-])C(C)C,http://dx.doi.org/10.1021/ci800406y,http://dx.doi.org/10.1021/ci800406y,,,
FHADSMKORVFYOS-UHFFFAOYSA-N,,-1.29,,ONSchallenge,water,O,OC1CCCCCCC1,http://dx.doi.org/10.1021/ci800406y,,,,
FLVIGYVXZHLUHP-UHFFFAOYSA-N,,-1.46,,ONSchallenge,water,O,S=C(NCC)NCC,http://dx.doi.org/10.1021/ci800406y,,,,
FMGSKLZLMKYGDP-USOAJAOKSA-N,,-4.06153,,ONSchallenge,water,O,O=C1[C@]2(C)[C@H]([C@H]3[C@@H]([C@]4(C)C(=CC3)C[C@@H](O)CC4)CC2)CC1,http://dx.doi.org/10.1021/ci800406y,http://dx.doi.org/10.1021/ci800406y,,,
FMINYZXVCTYSNY-UHFFFAOYSA-N,,-3.35,,ONSchallenge,water,O,O=C(N(C)c1ccccc1)NC(C)(C)c1ccccc1,http://dx.doi.org/10.1021/ci800406y,,,,
FMKMKBLHMONXJM-UHFFFAOYSA-N,,-0.938,,ONSchallenge,water,O,Nc1n(c2ccccc2)nc(C)c1,http://dx.doi.org/10.1021/ci800406y,,,,
FNFPHNZQOKBKHN-UHFFFAOYSA-N,,-5.51,,ONSchallenge,water,O,O=C(OCC(=O)C1(O)C2(C)C(C3C(C4(C)C(=CC(=O)CC4)CC3)C(O)C2)CC1)CC(C)(C)C,http://dx.doi.org/10.1021/ci800406y,,,,
FNROXVCRPXYLRT-UHFFFAOYSA-N,,-1.229,,ONSchallenge,water,O,O=C(N(C)C)CCCOC(=O)c1ccccc1,http://dx.doi.org/10.1021/ci800406y,,,,
FOANIXZHAMJWOI-UHFFFAOYSA-N,,-4.93,,ONSchallenge,water,O,Brc1ccc(C(O)(C(=O)OC(C)C)c2ccc(Br)cc2)cc1,http://dx.doi.org/10.1021/ci800406y,,,,
FOCAUTSVDIKZOP-UHFFFAOYSA-N,,0.944261,,ONSchallenge,water,O,ClCC(=O)O,http://www.chemspider.com/Chemical-Structure.10772140.html,http://dx.doi.org/10.1021/ci800406y,,,
FOIBFBMSLDGNHL-UHFFFAOYSA-N,,-12.790485,,ONSchallenge,water,O,Clc1c(Cl)c(Cl)c2Oc3c(Cl)c(Cl)c(Cl)c(Cl)c3Oc2c1Cl,http://dx.doi.org/10.1021/ci800406y,,,,
FPQJEXTVQZHURJ-UHFFFAOYSA-N,,-0.112,,ONSchallenge,water,O,O=C(NCCO)C(=O)NCCO,http://dx.doi.org/10.1021/ci800406y,,,,
FRDAATYAJDYRNW-UHFFFAOYSA-N,,-0.38,,ONSchallenge,water,O,OC(CC)(CC)C,http://dx.doi.org/10.1021/ci800406y,http://dx.doi.org/10.1021/ci800406y,,,
FRQUNVLMWIYOLV-UHFFFAOYSA-N,,-4.29,,ONSchallenge,water,O,Clc1c(Cl)c(OC)ccc1Cl,http://dx.doi.org/10.1021/ci800406y,,,,
FSCWZHGZWWDELK-UHFFFAOYSA-N,,-4.93,,ONSchallenge,water,O,Clc1cc(Cl)cc(N2C(=O)C(C=C)(C)OC2=O)c1,http://dx.doi.org/10.1021/ci800406y,,,,
FSERHDPEOFYMMK-UHFFFAOYSA-N,,-4.0552,,ONSchallenge,water,O,Brc1cc2c(CN(C)C)c[nH]c2cc1,http://dx.doi.org/10.1021/ci800406y,,,,
FSVJFNAIGNNGKK-UHFFFAOYSA-N,,-3.193,,ONSchallenge,water,O,O=C(N1CC(=O)N2C(c3c(cccc3)CC2)C1)C1CCCCC1,http://www.springerlink.com/content/um5p375020237780/,,,,
FTOVXSOBNPWTSH-UHFFFAOYSA-N,,-8.230032,,ONSchallenge,water,O,c12c3c4c(cc1c1c(c2ccc3)cccc1)cccc4,http://dx.doi.org/10.1021/ci800406y,,,,
FUKCEEDRHGCYHH-UHFFFAOYSA-N,,-2.759,,ONSchallenge,water,O,O=C(NCCCC)COC(=O)c1ccccc1,http://dx.doi.org/10.1021/ci800406y,,,,
FULZLIGZKMKICU-UHFFFAOYSA-N,,-1.77,,ONSchallenge,water,O,S=C(Nc1ccccc1)N,http://dx.doi.org/10.1021/ci800406y,,,,
FUUHMSUPRUNWRQ-UHFFFAOYSA-N,,-5.26,,ONSchallenge,water,O,Clc1c(Cl)c(Cl)cc(OC)c1Cl,http://dx.doi.org/10.1021/ci800406y,,,,
FVSKHRXBFJPNKK-UHFFFAOYSA-N,,0.28,,ONSchallenge,water,O,N#CCC,http://dx.doi.org/10.1021/ci800406y,http://dx.doi.org/10.1021/ci800406y,,,
FXHOOIRPVKKKFG-UHFFFAOYSA-N,,1.11,,ONSchallenge,water,O,O=C(N(C)C)C,http://dx.doi.org/10.1021/ci800406y,http://dx.doi.org/10.1021/ci800406y,,,
FZBXGZBXWFNCQY-UHFFFAOYSA-N,,-2.542,,ONSchallenge,water,O,O=C(COC(=O)c1ccccc1)N1CCCCCC1,http://dx.doi.org/10.1021/ci800406y,,,,
FZSVSABTBYGOQH-UHFFFAOYSA-N,,-1.62,,ONSchallenge,water,O,S(CC(=NOC(=O)NC)C(C)(C)C)C,http://dx.doi.org/10.1021/ci800406y,,,,