StdInChIKey,SMILES,LogS,T,Source,Solvent,Solvent_SMILES,Smilesa,REF1,REF2,REF3,REF4,REF5
RMBFBMJGBANMMK-UHFFFAOYSA-N,,-2.82,,ONSchallenge,water,O,O=[N+]([O-])c1c(C)ccc([N+](=O)[O-])c1,http://dx.doi.org/10.1021/ci800406y,,,,
RMOUBSOVHSONPZ-UHFFFAOYSA-N,,-0.63,,ONSchallenge,water,O,O=COC(C)C,http://dx.doi.org/10.1021/ci800406y,,,,
RNFNDJAIBTYOQL-UHFFFAOYSA-N,,0.72,,ONSchallenge,water,O,ClC(Cl)(Cl)C(O)O,http://dx.doi.org/10.1021/ci800406y,,,,
RNVCVTLRINQCPJ-UHFFFAOYSA-N,,-0.85,,ONSchallenge,water,O,Nc1c(C)cccc1,http://dx.doi.org/10.1021/ci800406y,,,,
RNWGZXAHUPFXLL-UHFFFAOYSA-N,,-2.651,,ONSchallenge,water,O,O=[N+]([O-])c1cc2C(=O)OCc2cc1,http://dx.doi.org/10.1021/ci800406y,,,,
RPUMZMSNLZHIGZ-UHFFFAOYSA-N,,-8.320027,,ONSchallenge,water,O,Clc1c(Cl)c(c2c(Cl)cc(Cl)c(Cl)c2)ccc1Cl,http://dx.doi.org/10.1021/ci800406y,,,,
RQVYBGPQFYCBGX-UHFFFAOYSA-N,,-3.04,,ONSchallenge,water,O,S(C)c1nc(NC(C)C)nc(NCC)n1,http://dx.doi.org/10.1021/ci800406y,,,,
RQZAXGRLVPAYTJ-UHFFFAOYSA-N,,-5.35,,ONSchallenge,water,O,O=C(OC1(C(=O)C)C2(C)C(C3C=C(C)C4=CC(=O)CCC4(C)C3CC2)CC1)C,http://dx.doi.org/10.1021/ci800406y,,,,
RRNIZKPFKNDSRS-UHFFFAOYSA-N,,-4.2,,ONSchallenge,water,O,S(=O)(=O)(NCCSP(=S)(OC(C)C)OC(C)C)c1ccccc1,http://dx.doi.org/10.1021/ci800406y,,,,
RSDMFNVRFBIYRK-UHFFFAOYSA-N,,-1.609,,ONSchallenge,water,O,O=C(COC(=O)c1ccccc1)N1CCC1,http://dx.doi.org/10.1021/ci800406y,,,,
RTHCYVBBDHJXIQ-UHFFFAOYSA-N,,-1.59,,ONSchallenge,water,O,FC(F)(F)c1ccc(OC(CCNC)c2ccccc2)cc1,http://dx.doi.org/10.1021/ci800406y,,,,
RTZKZFJDLAIYFH-UHFFFAOYSA-N,,-0.09,,ONSchallenge,water,O,O(CC)CC,http://dx.doi.org/10.1021/ci800406y,http://dx.doi.org/10.1021/ci800406y,,,
RTZZCYNQPHTPPL-UHFFFAOYSA-N,,-1.01,,ONSchallenge,water,O,O=[N+]([O-])c1cc(O)ccc1,http://dx.doi.org/10.1021/ci800406y,,,,
RVCTZJVBWNFYRU-UHFFFAOYSA-N,,-2.966,,ONSchallenge,water,O,Brc1c([N+](=O)[O-])cc(C(=O)O)cc1,http://dx.doi.org/10.1021/ci800406y,,,,
RWLALWYNXFYRGW-UHFFFAOYSA-N,,-0.54,,ONSchallenge,water,O,OC(C(CO)CC)CCC,http://dx.doi.org/10.1021/ci800406y,,,,
RWNKSTSCBHKHTB-UHFFFAOYSA-N,,-4.914971,,ONSchallenge,water,O,ClC(=C(Cl)C(=C(Cl)Cl)Cl)Cl,http://dx.doi.org/10.1021/ci800406y,http://dx.doi.org/10.1021/ci800406y,,,
RWRDLPDLKQPQOW-UHFFFAOYSA-N,,1.15,,ONSchallenge,water,O,N1CCCC1,http://dx.doi.org/10.1021/ci800406y,,,,
RXKNNAKAVAHBNK-UHFFFAOYSA-N,,-0.68825,,ONSchallenge,water,O,O=[N+]([O-])c1cc[n+]([O-])cc1,http://dx.doi.org/10.1039/c0nj00893a,,,,
RXQCEGOUSFBKPI-UHFFFAOYSA-N,,-3.159,,ONSchallenge,water,O,O=[N+]([O-])c1cc(N)c(OCCC)cc1,http://dx.doi.org/10.1021/ci800406y,,,,
RZFZBHKDGHISSH-UHFFFAOYSA-N,,-6.940002,,ONSchallenge,water,O,Clc1c(c(Cl)cc(Cl)c1)c1ccc(Cl)cc1,http://dx.doi.org/10.1021/ci800406y,,,,
RZILCCPWPBTYDO-UHFFFAOYSA-N,,-3.43,,ONSchallenge,water,O,FC(F)(F)c1cc(NC(=O)N(C)C)ccc1,http://dx.doi.org/10.1021/ci800406y,,,,
RZTAMFZIAATZDJ-UHFFFAOYSA-N,,-5.682,,ONSchallenge,water,O,Clc1c(Cl)cccc1C1C(=C(C)NC(=C1C(=O)OC)C)C(=O)OCC,http://dx.doi.org/10.1021/ci800406y,,,,
RZVHIXYEVGDQDX-UHFFFAOYSA-N,,-5.19,,ONSchallenge,water,O,O=C1c2c(C(=O)c3c1cccc3)cccc2,http://dx.doi.org/10.1021/ci800406y,http://dx.doi.org/10.1021/ci800406y,,,
SAOKZLXYCUGLFA-UHFFFAOYSA-N,,-5.064,,ONSchallenge,water,O,O=C(OCC(CCCC)CC)CCCCC(=O)OCC(CCCC)CC,http://dx.doi.org/10.1021/ci800406y,,,,
SBPBAQFWLVIOKP-UHFFFAOYSA-N,,-5.513696,,ONSchallenge,water,O,Clc1c(Cl)cc(Cl)c(OP(=S)(OCC)OCC)n1,http://dx.doi.org/10.1021/ci800406y,http://dx.doi.org/10.1021/ci800406y,,,
SBYAVOHNDJTVPA-UHFFFAOYSA-N,,-2.15,,ONSchallenge,water,O,O=C(NCC(C)C)N1C(=O)NCC1,http://dx.doi.org/10.1021/ci800406y,,,,
SBZXBUIDTXKZTM-UHFFFAOYSA-N,,0.88,,ONSchallenge,water,O,O(CCOC)CCOC,http://dx.doi.org/10.1021/ci800406y,,,,
SDDBCEWUYXVGCQ-UHFFFAOYSA-N,,-4.74,,ONSchallenge,water,O,Cc1c2c(c(C)ccc2)ccc1,http://dx.doi.org/10.1021/ci800406y,,,,
SDKQRNRRDYRQKY-UHFFFAOYSA-N,,-1.57,,ONSchallenge,water,O,O=C(Oc1c(C2OCCO2)cccc1)NC,http://dx.doi.org/10.1021/ci800406y,,,,
SDOJHDGZFOGOFD-UHFFFAOYSA-N,,-7.009999,,ONSchallenge,water,O,Cc1c(C)c2c(c3c1c1c(cc3)cccc1)cccc2,http://dx.doi.org/10.1021/ci800406y,,,,
SECXISVLQFMRJM-UHFFFAOYSA-N,,1.0,,ONSchallenge,water,O,O=C1N(C)CCC1,http://dx.doi.org/10.1021/ci800406y,,,,
SGEJQUSYQTVSIU-UHFFFAOYSA-N,,-3.37896,,ONSchallenge,water,O,S(C(=O)N(CCCC)CC)CCC,http://dx.doi.org/10.1021/ci800406y,http://dx.doi.org/10.1021/ci800406y,,,
SGMHGVVTMOGJMX-UHFFFAOYSA-N,,-3.337,,ONSchallenge,water,O,SCC(=O)Nc1cc2c(cc1)cccc2,http://dx.doi.org/10.1021/ci800406y,,,,
SGUAFYQXFOLMHL-UHFFFAOYSA-N,,-1.3,,ONSchallenge,water,O,O=C(N)c1c(O)ccc(C(O)CNC(CCc2ccccc2)C)c1,http://dx.doi.org/10.1021/ci800406y,,,,
SJNIEBAPMPLYAB-UHFFFAOYSA-N,,-5.38,,ONSchallenge,water,O,Clc1c(=O)oc2c(c1C)cc(OP(=S)(OCC)OCC)cc2,http://dx.doi.org/10.1021/ci800406y,,,,
SJRJJKPEHAURKC-UHFFFAOYSA-N,,1.0,,ONSchallenge,water,O,CN1CCOCC1,http://dx.doi.org/10.1021/ci800406y,,,,
SKGXYFVQZVPEFP-UHFFFAOYSA-N,,-8.890084,,ONSchallenge,water,O,Clc1c(Cl)c2Oc3c(Oc2cc1Cl)cc(Cl)cc3,http://dx.doi.org/10.1021/ci800406y,,,,
SKIVFJLNDNKQPD-UHFFFAOYSA-N,,-1.35405,,ONSchallenge,water,O,S(=O)(=O)(NC(=O)C)c1ccc(N)cc1,http://www.springerlink.com/content/um5p375020237780/,http://dx.doi.org/10.1021/ci800406y,http://dx.doi.org/10.1021/ci800406y,http://dx.doi.org/10.1021/ci800406y,
SKKTUOZKZKCGTB-UHFFFAOYSA-N,,-0.66,,ONSchallenge,water,O,O=C(OCCCC)N,http://dx.doi.org/10.1021/ci800406y,,,,
SLAMLWHELXOEJZ-UHFFFAOYSA-N,,-1.474,,ONSchallenge,water,O,O=[N+]([O-])c1c(C(=O)O)cccc1,http://dx.doi.org/10.1021/ci800406y,,,,
SLGBZMMZGDRARJ-UHFFFAOYSA-N,,-6.74,,ONSchallenge,water,O,c12c(c3c(c4c1cccc4)cccc3)cccc2,http://dx.doi.org/10.1021/ci800406y,http://dx.doi.org/10.1021/ci800406y,,,
SLXKOJJOQWFEFD-UHFFFAOYSA-N,,-0.97469,,ONSchallenge,water,O,O=C(O)CCCCCN,http://books.google.com/books?id=tfpQJjWcRs4C,,,,
SLZWBCGZQRRUNG-UHFFFAOYSA-N,,-4.24,,ONSchallenge,water,O,O=C(Oc1cc(C(C)(C)C)cc(C(C)(C)C)c1)NC,http://dx.doi.org/10.1021/ci800406y,,,,
SMDHCQAYESWHAE-UHFFFAOYSA-N,,-5.53,,ONSchallenge,water,O,FC(F)(F)c1cc([N+](=O)[O-])c(N(CCCC)CC)c([N+](=O)[O-])c1,http://dx.doi.org/10.1021/ci800406y,,,,
SMQUZDBALVYZAC-UHFFFAOYSA-N,,-0.86,,ONSchallenge,water,O,O=Cc1c(O)cccc1,http://dx.doi.org/10.1021/ci800406y,,,,
SNHRLVCMMWUAJD-SUYDQAKGSA-N,,-4.9073,,ONSchallenge,water,O,F[C@]12[C@@H](O)C[C@]3(C)[C@@](OC(=O)CCCC)(C(=O)CO)[C@@H](C)C[C@H]3[C@@H]1CCC1=CC(=O)C=C[C@]21C,http://dx.doi.org/10.1021/ci800406y,,,,
SNHRLVCMMWUAJD-UHFFFAOYSA-N,,-4.71,,ONSchallenge,water,O,FC12C3(C)C(=CC(=O)C=C3)CCC1C1C(C)(C(OC(=O)CCCC)(C(=O)CO)C(C)C1)CC2O,http://dx.doi.org/10.1021/ci800406y,,,,
SNICXCGAKADSCV-UHFFFAOYSA-N,,0.79,,ONSchallenge,water,O,CN1C(c2cnccc2)CCC1,http://dx.doi.org/10.1021/ci800406y,,,,
SNIOPGDIGTZGOP-UHFFFAOYSA-N,,-2.22,,ONSchallenge,water,O,O=[N+](OC(CO[N+](=O)[O-])CO[N+](=O)[O-])[O-],http://dx.doi.org/10.1021/ci800406y,,,,
SNWQKAWITMVCQW-UHFFFAOYSA-N,,-2.517,,ONSchallenge,water,O,S(=O)(=O)(NC(=O)C)c1ccc(NC(=O)c2c(C(=O)O)cccc2)cc1,http://dx.doi.org/10.1021/ci800406y,,,,
SONNWYBIRXJNDC-VIFPVBQESA-N,,0.58,,ONSchallenge,water,O,O[C@@H](CNC)c1cc(O)ccc1,http://dx.doi.org/10.1021/ci800406y,,,,
SPANOECCGNXGNR-UHFFFAOYSA-N,,-4.06988,,ONSchallenge,water,O,ClC(=CCl)CSC(=O)N(C(C)C)C(C)C,http://dx.doi.org/10.1021/ci800406y,http://dx.doi.org/10.1021/ci800406y,,,
SPFYMRJSYKOXGV-UHFFFAOYSA-N,,-3.1811,,ONSchallenge,water,O,Fc1c(N2CCN(CC)CC2)cc2n(C3CC3)cc(C(=O)O)c(=O)c2c1,http://dx.doi.org/10.1021/ci800406y,,,,
SPSSULHKWOKEEL-UHFFFAOYSA-N,,-3.22,,ONSchallenge,water,O,O=[N+]([O-])c1c(C)c([N+](=O)[O-])cc([N+](=O)[O-])c1,http://dx.doi.org/10.1021/ci800406y,,,,
SSLKKMZJCJBOML-UHFFFAOYSA-N,,-1.72,,ONSchallenge,water,O,Clc1nnc(SCC(=O)N(CC)CC)cc1,http://dx.doi.org/10.1021/ci800406y,,,,
STCOOQWBFONSKY-UHFFFAOYSA-N,,-2.846,,ONSchallenge,water,O,P(=O)(OCCCC)(OCCCC)OCCCC,http://dx.doi.org/10.1021/ci800406y,,,,
SUSRORUBZHMPCO-UHFFFAOYSA-N,,-6.0,,ONSchallenge,water,O,Clc1c(Oc2cc(C(=O)OC)c([N+](=O)[O-])cc2)ccc(Cl)c1,http://dx.doi.org/10.1021/ci800406y,,,,
SVFKQHLOBRUZGV-UHFFFAOYSA-N,,-2.62,,ONSchallenge,water,O,O=c1n(C)c2c(n(CC)c3ncccc13)nccc2,http://dx.doi.org/10.1021/ci800406y,,,,
SYBYTAAJFKOIEJ-UHFFFAOYSA-N,,-0.12,,ONSchallenge,water,O,O=C(C(C)C)C,http://dx.doi.org/10.1021/ci800406y,,,,
SZYWFOPNFNROQB-UHFFFAOYSA-N,,-4.98,,ONSchallenge,water,O,Clc1c(Cl)cc(Cl)c2nsnc12,http://dx.doi.org/10.1021/ci800406y,,,,
TUNFSRHWOTWDNC-UHFFFAOYSA-N,,-5.33,,ONSchallenge,water,O,O=C(O)CCCCCCCCCCCCC,http://dx.doi.org/10.1021/ci800406y,,,,
TVMXDCGIABBOFY-UHFFFAOYSA-N,,-5.24,,ONSchallenge,water,O,C(CCCC)CCC,http://dx.doi.org/10.1021/ci800406y,http://dx.doi.org/10.1021/ci800406y,,,
TXCDCPKCNAJMEE-UHFFFAOYSA-N,,-4.51267,,ONSchallenge,water,O,o1c2c(c3c1cccc3)cccc2,http://dx.doi.org/10.1021/ci800406y,http://dx.doi.org/10.1021/ci800406y,,,
TXVHTIQJNYSSKO-UHFFFAOYSA-N,,-7.799998,,ONSchallenge,water,O,c12c3c4c5c(c1cccc2ccc3ccc4)cccc5,http://dx.doi.org/10.1021/ci800406y,,,,
TYHHDWAHJRRYCU-UHFFFAOYSA-N,,-2.014,,ONSchallenge,water,O,O=[N+]([O-])c1c(OCC(=O)O)cccc1,http://dx.doi.org/10.1021/ci800406y,,,,
TYMLOMAKGOJONV-UHFFFAOYSA-N,,-2.37,,ONSchallenge,water,O,O=[N+]([O-])c1ccc(N)cc1,http://dx.doi.org/10.1021/ci800406y,,,,
TZFWDZFKRBELIQ-UHFFFAOYSA-N,,-2.77605,,ONSchallenge,water,O,Clc1cc2[nH]c(=O)oc2cc1,http://www.springerlink.com/content/um5p375020237780/,http://dx.doi.org/10.1021/ci800406y,,,
TZIHFWKZFHZASV-UHFFFAOYSA-N,,0.58,,ONSchallenge,water,O,O=COC,http://dx.doi.org/10.1021/ci800406y,http://dx.doi.org/10.1021/ci800406y,,,
TZYQTWHRLVDYPL-UHFFFAOYSA-N,,0.59,,ONSchallenge,water,O,O=C1N=CN=CC1,http://dx.doi.org/10.1021/ci800406y,,,,
UAYYWDWWESZIPA-UHFFFAOYSA-N,,-5.616,,ONSchallenge,water,O,Fc1c(N2CC(N)(C)C2)cc2n(C3CC3)cc(C(=O)O)c(=O)c2c1,http://dx.doi.org/10.1021/ci800406y,,,,
UBUCNCOMADRQHX-UHFFFAOYSA-N,,-3.75,,ONSchallenge,water,O,O=NN(c1ccccc1)c1ccccc1,http://dx.doi.org/10.1021/ci800406y,,,,
UCIUVGVKELKZSD-UHFFFAOYSA-N,,0.43,,ONSchallenge,water,O,O=C(N(CCO)CCO)COC(=O)c1ccccc1,http://dx.doi.org/10.1021/ci800406y,,,,
UCMIRNVEIXFBKS-UHFFFAOYSA-N,,0.999479,,ONSchallenge,water,O,O=C(O)CCN,http://books.google.com/books?id=tfpQJjWcRs4C,,,,
UCNVFOCBFJOQAL-UHFFFAOYSA-N,,-6.899998,,ONSchallenge,water,O,ClC(=C(c1ccc(Cl)cc1)c1ccc(Cl)cc1)Cl,http://dx.doi.org/10.1021/ci800406y,http://dx.doi.org/10.1021/ci800406y,,,
UCTWMZQNUQWSLP-UHFFFAOYSA-N,,-0.962,,ONSchallenge,water,O,OC(CNC)c1cc(O)c(O)cc1,http://dx.doi.org/10.1021/ci800406y,,,,
UDUNORRTIFRHKX-UHFFFAOYSA-N,,-1.59908,,ONSchallenge,water,O,ClC1=C(NC2C=C(CC(=O)OCC(=O)NC(C(=O)OC)C(C)C)C=CC=C2)C(Cl)C=CC=C1,http://sphinxsai.com/vol3.no2/pharm/pharmpdf/PT=35(841-851)AJ11.pdf,,,,
UEJJHQNACJXSKW-UHFFFAOYSA-N,,-2.68,,ONSchallenge,water,O,O=C1C(N2C(=O)c3c(C2=O)cccc3)CCC(=O)N1,http://dx.doi.org/10.1021/ci800406y,,,,
UFNIBRDIUNVOMX-UHFFFAOYSA-N,,-5.28,,ONSchallenge,water,O,Clc1c(c2ccc(Cl)cc2)cccc1,http://dx.doi.org/10.1021/ci800406y,http://dx.doi.org/10.1021/ci800406y,,,
UFQCLRMJHOWNLX-UHFFFAOYSA-N,,-3.222,,ONSchallenge,water,O,Brc1cc(Nc2ncnc3c2cc2OC(COC)COc2c3)ccc1,http://dx.doi.org/10.1021/ci800406y,,,,
UGQVTTBSGZLNIL-UHFFFAOYSA-N,,-2.254,,ONSchallenge,water,O,S(=O)(=O)(N)c1sc2C(O)CCSc2c1,http://dx.doi.org/10.1021/ci800406y,,,,
UJOBWOGCFQCDNV-UHFFFAOYSA-N,,-4.97,,ONSchallenge,water,O,[nH]1c2c(c3c1cccc3)cccc2,http://dx.doi.org/10.1021/ci800406y,,,,
ULBXWWGWDPVHAO-UHFFFAOYSA-N,,-2.62,,ONSchallenge,water,O,Clc1cc(NC(=O)OC(C#C)C)ccc1,http://dx.doi.org/10.1021/ci800406y,,,,
ULSIYEODSMZIPX-UHFFFAOYSA-N,,-0.48,,ONSchallenge,water,O,OC(CN)c1ccccc1,http://dx.doi.org/10.1021/ci800406y,,,,
UMGDCJDMYOKAJW-UHFFFAOYSA-N,,0.32,,ONSchallenge,water,O,S=C(N)N,http://dx.doi.org/10.1021/ci800406y,,,,
UMIPWJGWASORKV-UHFFFAOYSA-N,,-3.66,,ONSchallenge,water,O,C(#C)CCCCCC,http://dx.doi.org/10.1021/ci800406y,http://dx.doi.org/10.1021/ci800406y,,,
UNAHYJYOSSSJHH-UHFFFAOYSA-N,,-5.16,,ONSchallenge,water,O,S(=O)(=O)(N)c1cc([N+](=O)[O-])c(N(CCC)CCC)c([N+](=O)[O-])c1,http://dx.doi.org/10.1021/ci800406y,,,,
UNXHWFMMPAWVPI-UHFFFAOYSA-N,,0.7,,ONSchallenge,water,O,OC(C(O)CO)CO,http://dx.doi.org/10.1021/ci800406y,,,,
UOAMTSKGCBMZTC-UHFFFAOYSA-N,,-5.67,,ONSchallenge,water,O,ClC(Cl)(Cl)C(O)(c1ccc(Cl)cc1)c1ccc(Cl)cc1,http://dx.doi.org/10.1021/ci800406y,,,,
UPMXNNIRAGDFEH-UHFFFAOYSA-N,,-3.33,,ONSchallenge,water,O,Brc1c(O)c(Br)cc(C#N)c1,http://dx.doi.org/10.1021/ci800406y,,,,
UPTOWXNJLZJTGD-UHFFFAOYSA-N,,-3.117,,ONSchallenge,water,O,O=[N+]([O-])c1c(OC)ccc(OC)c1,http://dx.doi.org/10.1021/ci800406y,,,,
UQDUPQYQJKYHQI-UHFFFAOYSA-N,,-4.69,,ONSchallenge,water,O,O=C(OC)CCCCCCCCCCC,http://dx.doi.org/10.1021/ci800406y,,,,
UQIKOYWGLUXMNE-UHFFFAOYSA-N,,-2.084,,ONSchallenge,water,O,O=C(COC(=O)c1ccccc1)N1C(C(=O)OC)CCC1,http://dx.doi.org/10.1021/ci800406y,,,,
URAYPUMNDPQOKB-UHFFFAOYSA-N,,-0.6,,ONSchallenge,water,O,O=C(OC(COC(=O)C)COC(=O)C)C,http://dx.doi.org/10.1021/ci800406y,,,,
UREBDLICKHMUKA-DVTGEIKXSA-N,,-3.7945,,ONSchallenge,water,O,F[C@]12[C@@H](O)C[C@]3(C)[C@@](O)(C(=O)CO)[C@@H](C)C[C@H]3[C@@H]1CCC1=CC(=O)C=C[C@]21C,http://dx.doi.org/10.1021/ci800406y,,,,
UVKZSORBKUEBAZ-UHFFFAOYSA-N,,-1.527,,ONSchallenge,water,O,C(N1CCN(C)CC1)(c1ccccc1)c1ccccc1,http://dx.doi.org/10.1021/ci800406y,,,,
UVTNFZQICZKOEM-UHFFFAOYSA-N,,-1.75,,ONSchallenge,water,O,O=C(N)C(CCN(C(C)C)C(C)C)(c1ncccc1)c1ccccc1,http://www.springerlink.com/content/um5p375020237780/,,,,
UYXAWHWODHRRMR-UHFFFAOYSA-N,,-2.76364,,ONSchallenge,water,O,O=C1N(C)C(=O)NC(=O)C1(C)C1=CCCCC1,http://dx.doi.org/10.1021/ci800406y,http://dx.doi.org/10.1021/ci800406y,http://dx.doi.org/10.1021/ci800406y,,
VAOCPAMSLUNLGC-UHFFFAOYSA-N,,-1.20351,,ONSchallenge,water,O,O=[N+]([O-])c1n(CCO)c(C)nc1,http://www.springerlink.com/content/um5p375020237780/,http://dx.doi.org/10.1021/ci800406y,http://dx.doi.org/10.1021/ci800406y,http://dx.doi.org/10.1021/ci800406y,
VDAMAZDKFJYVCT-UHFFFAOYSA-N,,-4.222,,ONSchallenge,water,O,S(=O)(=O)(N)c1scc(S(=O)(=O)c2ccc(OC)cc2)c1,http://dx.doi.org/10.1021/ci800406y,,,,
VDTNNGKXZGSZIP-UHFFFAOYSA-N,,-2.18,,ONSchallenge,water,O,S(=O)(=O)(NC(=O)NCCCC)c1ccc(N)cc1,http://dx.doi.org/10.1021/ci800406y,,,,
VGGSQFUCUMXWEO-UHFFFAOYSA-N,,-0.4,,ONSchallenge,water,O,C=C,http://dx.doi.org/10.1021/ci800406y,,,,
VGPYEHKOIGNJKV-UHFFFAOYSA-N,,-1.66,,ONSchallenge,water,O,S(=O)(=O)(NC(=O)OC)c1ccc(N)cc1,http://dx.doi.org/10.1021/ci800406y,,,,
VGQLNJWOULYVFV-UHFFFAOYSA-N,,-1.2,,ONSchallenge,water,O,O=C(OC)C1C(C(=O)OC)C2C=CC1C2,http://dx.doi.org/10.1021/ci800406y,,,,
VGVIKVCCUATMNG-UHFFFAOYSA-N,,-6.27,,ONSchallenge,water,O,Clc1c(Cl)cc(c(Cl)c1)c1ccccc1,http://dx.doi.org/10.1021/ci800406y,http://dx.doi.org/10.1021/ci800406y,,,
VGZSUPCWNCWDAN-UHFFFAOYSA-N,,-2.06,,ONSchallenge,water,O,S(=O)(=O)(NC(=O)NC1CCCCC1)c1ccc(C(=O)C)cc1,http://dx.doi.org/10.1021/ci800406y,,,,
VHZXNQKVFDBFIK-NBBHSKLNSA-N,,-6.79588,,ONSchallenge,water,O,F[C@H]1C(=O)[C@]2(C)[C@H]([C@H]3[C@@H]([C@]4(C)C(=CC3)CCCC4)CC2)C1,http://books.google.com/books?id=tfpQJjWcRs4C,,,,
VIKNJXKGJWUCNN-XGXHKTLJSA-N,,-4.69398,,ONSchallenge,water,O,O=C1C=C2[C@@H]([C@@H]3[C@H]([C@H]4[C@@](C)([C@](O)(C#C)CC4)CC3)CC2)CC1,http://www.springerlink.com/content/um5p375020237780/,http://dx.doi.org/10.1021/ci800406y,http://dx.doi.org/10.1021/ci800406y,,
VKNITLPENCJQOP-UHFFFAOYSA-N,,-4.37,,ONSchallenge,water,O,Clc1c(Cl)c(Cl)cc(OC)c1OC,http://dx.doi.org/10.1021/ci800406y,http://dx.doi.org/10.1021/ci800406y,,,
VLKZOEOYAKHREP-UHFFFAOYSA-N,,-3.84,,ONSchallenge,water,O,C(CCC)CC,http://dx.doi.org/10.1021/ci800406y,http://dx.doi.org/10.1021/ci800406y,,,
VLYWMPOKSSWJAL-UHFFFAOYSA-N,,-3.28,,ONSchallenge,water,O,S(=O)(=O)(Nc1nnc(OC)cc1)c1ccc(N)cc1,http://dx.doi.org/10.1021/ci800406y,,,,
VMKOFRJSULQZRM-UHFFFAOYSA-N,,-5.06,,ONSchallenge,water,O,BrCCCCCCCC,http://dx.doi.org/10.1021/ci800406y,,,,
VOEYXMAFNDNNED-UHFFFAOYSA-N,,-1.8,,ONSchallenge,water,O,O=C(Oc1cc(C)ccc1)NC,http://dx.doi.org/10.1021/ci800406y,,,,
VOKSWYLNZZRQPF-GDIGMMSISA-N,,-3.8032,,ONSchallenge,water,O,Oc1cc2[C@@]3(C)[C@@H](C)[C@H](N(CC=C(C)C)CC3)Cc2cc1,http://dx.doi.org/10.1021/ci800406y,,,,
VOXZDWNPVJITMN-UHFFFAOYSA-N,,-4.84,,ONSchallenge,water,O,Oc1cc2c(cc1)C1C(C3C(C)(C(O)CC3)CC1)CC2,http://dx.doi.org/10.1021/ci800406y,,,,
VPGRYOFKCNULNK-UHFFFAOYSA-N,,-4.63,,ONSchallenge,water,O,O=C(OCC(=O)C1C2(C)C(C3C(C4(C)C(=CC(=O)CC4)CC3)CC2)CC1)C,http://dx.doi.org/10.1021/ci800406y,,,,
VREFGVBLTWBCJP-UHFFFAOYSA-N,,-3.433,,ONSchallenge,water,O,Clc1cc2C(=NCc3n(c(C)nn3)c2cc1)c1ccccc1,http://dx.doi.org/10.1021/ci800406y,,,,
VSNHCAURESNICA-UHFFFAOYSA-N,,1.12,,ONSchallenge,water,O,O=C(NO)N,http://dx.doi.org/10.1021/ci800406y,,,,
VUNCWTMEJYMOOR-UHFFFAOYSA-N,,-5.18,,ONSchallenge,water,O,ClC1(Cl)C(=C(Cl)C(=C1Cl)Cl)Cl,http://dx.doi.org/10.1021/ci800406y,,,,
VVNCNSJFMMFHPL-UHFFFAOYSA-N,,-0.13,,ONSchallenge,water,O,SC(C(N)C(=O)O)(C)C,http://dx.doi.org/10.1021/ci800406y,,,,
VVQNEPGJFQJSBK-UHFFFAOYSA-N,,-0.8,,ONSchallenge,water,O,O=C(OC)C(=C)C,http://dx.doi.org/10.1021/ci800406y,http://dx.doi.org/10.1021/ci800406y,,,
VVSSGCCPNDSLPL-UHFFFAOYSA-N,,-2.679,,ONSchallenge,water,O,S(=O)(=O)(N)c1sc2S(=O)(=O)CCCc2c1,http://dx.doi.org/10.1021/ci800406y,,,,
VWPOSFSPZNDTMJ-UCWKZMIHSA-N,,-1.008,,ONSchallenge,water,O,O(CC(O)CNC(C)(C)C)c1c2c(ccc1)C[C@@H](O)[C@@H](O)C2,http://www.springerlink.com/content/um5p375020237780/,,,,
VXGYRCVTBHVXMZ-UHFFFAOYSA-N,,-0.043,,ONSchallenge,water,O,O=C(O)c1cc2c(nccc2)cc1,http://dx.doi.org/10.1021/ci800406y,,,,
VXIVSQZSERGHQP-UHFFFAOYSA-N,,-0.02,,ONSchallenge,water,O,ClCC(=O)N,http://dx.doi.org/10.1021/ci800406y,,,,
VXLVYFXPZGPXCT-UHFFFAOYSA-N,,-3.024,,ONSchallenge,water,O,S(=O)(=O)(N)c1occ(S(=O)(=O)c2ccc(OC)cc2)c1,http://dx.doi.org/10.1021/ci800406y,,,,
VYWYYJYRVSBHJQ-UHFFFAOYSA-N,,-2.417,,ONSchallenge,water,O,O=[N+]([O-])c1cc([N+](=O)[O-])cc(C(=O)O)c1,http://dx.doi.org/10.1080/00319100410001697891,,,,
WBJINCZRORDGAQ-UHFFFAOYSA-N,,0.15,,ONSchallenge,water,O,O=COCC,http://dx.doi.org/10.1021/ci800406y,http://dx.doi.org/10.1021/ci800406y,,,
WCLNVRQZUKYVAI-UHFFFAOYSA-N,,-11.221848,,ONSchallenge,water,O,Clc1c(Cl)c(Cl)c2Oc3c(c(Cl)c(Cl)c(Cl)c3)Oc2c1Cl,http://dx.doi.org/10.1021/ci800406y,,,,
WCYYQNSQJHPVMG-UHFFFAOYSA-N,,-9.950782,,ONSchallenge,water,O,Clc1c(Cl)c(Cl)c2Oc3c(Oc2c1Cl)cc(Cl)c(Cl)c3,http://dx.doi.org/10.1021/ci800406y,,,,
WDCYWAQPCXBPJA-UHFFFAOYSA-N,,-2.29,,ONSchallenge,water,O,O=[N+]([O-])c1cc([N+](=O)[O-])ccc1,http://dx.doi.org/10.1021/ci800406y,,,,
WDECIBYCCFPHNR-UHFFFAOYSA-N,,-8.059982,,ONSchallenge,water,O,c12c(c3c(cc1)cccc3)ccc1c2cccc1,http://dx.doi.org/10.1021/ci800406y,http://dx.doi.org/10.1021/ci800406y,,,
WDQPAMHFFCXSNU-BGABXYSRSA-N,,-6.244,,ONSchallenge,water,O,Clc1ccc(Nc2/c(=N/C(C)C)/cc3n(c4ccc(Cl)cc4)c4c(nc3c2)cccc4)cc1,http://www.springerlink.com/content/um5p375020237780/,,,,
WEEGYLXZBRQIMU-UHFFFAOYSA-N,,-1.72074,,ONSchallenge,water,O,CC1(C)OC2(C)CCC1CC2,http://dx.doi.org/10.1021/ci800406y,http://dx.doi.org/10.1021/ci800406y,,,
WEHWNAOGRSTTBQ-UHFFFAOYSA-N,,-0.46,,ONSchallenge,water,O,N(CCC)CCC,http://dx.doi.org/10.1021/ci800406y,,,,
WEVYAHXRMPXWCK-UHFFFAOYSA-N,,0.26,,ONSchallenge,water,O,N#CC,http://dx.doi.org/10.1021/ci800406y,http://dx.doi.org/10.1021/ci800406y,,,
WFJNHVWTKZUUTR-UHFFFAOYSA-N,,-2.63,,ONSchallenge,water,O,OC(c1c2c(ncc1)cccc2)C1N2CC(CC)C(C1)CC2,http://dx.doi.org/10.1021/ci800406y,,,,
WFRBDWRZVBPBDO-UHFFFAOYSA-N,,-0.49,,ONSchallenge,water,O,OC(CCC)(C)C,http://dx.doi.org/10.1021/ci800406y,http://dx.doi.org/10.1021/ci800406y,,,
WHTBVLXUSXVMEV-UHFFFAOYSA-N,,-3.8,,ONSchallenge,water,O,S(=O)(=O)(Nc1c(C)cc(S(=O)(=O)c2ccccc2)cc1)C(F)(F)F,http://dx.doi.org/10.1021/ci800406y,,,,
WIDHRBRBACOVOY-UHFFFAOYSA-N,,-7.050001,,ONSchallenge,water,O,Clc1c(Cl)c(c2cc(Cl)c(Cl)cc2)ccc1Cl,http://dx.doi.org/10.1021/ci800406y,,,,
WIIZWVCIJKGZOK-RKDXNWHRSA-N,,-1.9759,,ONSchallenge,water,O,ClC(Cl)C(=O)N[C@@H]([C@H](O)c1ccc([N+](=O)[O-])cc1)CO,http://www.springerlink.com/content/um5p375020237780/,http://dx.doi.org/10.1021/ci800406y,http://dx.doi.org/10.1021/ci800406y,,
WIKYUJGCLQQFNW-UHFFFAOYSA-N,,-4.4,,ONSchallenge,water,O,Clc1cc2N(CCCN3CCN(C)CC3)c3c(Sc2cc1)cccc3,http://dx.doi.org/10.1021/ci800406y,,,,
WJNRPILHGGKWCK-UHFFFAOYSA-N,,-4.43,,ONSchallenge,water,O,Clc1nc(NC(C)C)nc(NC(C)C)n1,http://dx.doi.org/10.1021/ci800406y,,,,
WJRBRSLFGCUECM-UHFFFAOYSA-N,,-0.4,,ONSchallenge,water,O,O=C1NC(=O)CN1,http://dx.doi.org/10.1021/ci800406y,,,,