StdInChIKey,SMILES,LogS,T,Source,Solvent,Solvent_SMILES,Smilesa,REF1,REF2,REF3,REF4,REF5
NPUKDXXFDDZOKR-UHFFFAOYSA-N,,-4.74,,ONSchallenge,water,O,O=C(OCC)c1n(C(C)c2ccccc2)cnc1,http://dx.doi.org/10.1021/ci800406y,,,,
NQDJXKOVJZTUJA-UHFFFAOYSA-N,,-3.19,,ONSchallenge,water,O,O=c1[nH]c2c(C)ccnc2n(C2CC2)c2ncccc12,http://dx.doi.org/10.1021/ci800406y,,,,
NQRLPDFELNCFHW-UHFFFAOYSA-N,,-2.69,,ONSchallenge,water,O,O=[N+]([O-])c1ccc(NC(=O)C)cc1,http://dx.doi.org/10.1021/ci800406y,,,,
NQRYJNQNLNOLGT-UHFFFAOYSA-N,,1.07,,ONSchallenge,water,O,N1CCCCC1,http://dx.doi.org/10.1021/ci800406y,,,,
NRGGMCIBEHEAIL-UHFFFAOYSA-N,,0.51,,ONSchallenge,water,O,C(C)c1ncccc1,http://dx.doi.org/10.1021/ci800406y,,,,
NRXQIUSYPAHGNM-UHFFFAOYSA-N,,-3.61,,ONSchallenge,water,O,Ic1c(O)c(I)cc(C#N)c1,http://dx.doi.org/10.1021/ci800406y,,,,
NSMWYRLQHIXVAP-UHFFFAOYSA-N,,0.49,,ONSchallenge,water,O,CC1NCC(C)NC1,http://dx.doi.org/10.1021/ci800406y,,,,
NTBYINQTYWZXLH-UHFFFAOYSA-N,,-3.2,,ONSchallenge,water,O,Clc1c(Cl)ccc([N+](=O)[O-])c1,http://dx.doi.org/10.1021/ci800406y,,,,
NURQLCJSMXZBPC-UHFFFAOYSA-N,,0.36,,ONSchallenge,water,O,Cc1c(C)ccnc1,http://dx.doi.org/10.1021/ci800406y,,,,
NVKAWKQGWWIWPM-UHFFFAOYSA-N,,-4.74,,ONSchallenge,water,O,O=C1CC2C(C)(C3C(C4C(C)(C(O)CC4)CC3)CC2)CC1,http://dx.doi.org/10.1021/ci800406y,,,,
NXBNYUSXDBHELA-UHFFFAOYSA-N,,-5.699,,ONSchallenge,water,O,O=C(C=Cc1ccc(OC)cc1)c1c(O)cccc1,http://dx.doi.org/10.1021/ci800406y,,,,
NXFQHRVNIOXGAQ-YCRREMRBSA-N,,-3.357,,ONSchallenge,water,O,O=[N+]([O-])c1oc(/C=N/N2C(=O)NC(=O)C2)cc1,http://www.springerlink.com/content/um5p375020237780/,http://dx.doi.org/10.1021/ci800406y,,,
NXQDBZGWYSEGFL-UHFFFAOYSA-N,,-4.43,,ONSchallenge,water,O,Clc1ccc(N(C(=O)CSP(=S)(OC)OC)C(C)C)cc1,http://dx.doi.org/10.1021/ci800406y,,,,
NYHAZDHVIPVSDM-UHFFFAOYSA-N,,-2.39,,ONSchallenge,water,O,ON=C1C(=NO)CCC(C(C)C)C1,http://dx.doi.org/10.1021/ci800406y,,,,
NYQDCVLCJXRDSK-UHFFFAOYSA-N,,-6.09,,ONSchallenge,water,O,Brc1c(Cl)cc(OP(=S)(OC)OC)c(Cl)c1,http://dx.doi.org/10.1021/ci800406y,,,,
NZDAAPUTURAWII-UHFFFAOYSA-N,,-2.401,,ONSchallenge,water,O,O=C(NC(=O)C)COC(=O)c1ccccc1,http://dx.doi.org/10.1021/ci800406y,,,,
NZNPHIKNHGRVLZ-UHFFFAOYSA-N,,-2.866,,ONSchallenge,water,O,O=C(NC(C)(C)C)COC(=O)c1ccccc1,http://dx.doi.org/10.1021/ci800406y,,,,
OBKHYUIZSOIEPG-UHFFFAOYSA-N,,-4.48,,ONSchallenge,water,O,CC1(C)CC(C)CC1,http://dx.doi.org/10.1021/ci800406y,,,,
OBMLHUPNRURLOK-UHFFFAOYSA-N,,-5.41,,ONSchallenge,water,O,OC1C2(C)C(C3C(C4(C)C(CC5SC5C4)CC3)CC2)CC1,http://dx.doi.org/10.1021/ci800406y,,,,
ODCWYMIRDDJXKW-UHFFFAOYSA-N,,-4.55,,ONSchallenge,water,O,Clc1nc(NCC)nc(NCC)n1,http://dx.doi.org/10.1021/ci800406y,,,,
OFDYMSKSGFSLLM-UHFFFAOYSA-N,,-5.47,,ONSchallenge,water,O,FC(F)(F)c1c(N)c([N+](=O)[O-])c(N(CC)CC)c([N+](=O)[O-])c1,http://dx.doi.org/10.1021/ci800406y,,,,
OGBQILNBLMPPDP-UHFFFAOYSA-N,,-9.159894,,ONSchallenge,water,O,Clc1c(Cl)c2oc3c(c2cc1Cl)cc(Cl)c(Cl)c3,http://dx.doi.org/10.1021/ci800406y,,,,
OGDVEMNWJVYAJL-UHFFFAOYSA-N,,-0.82,,ONSchallenge,water,O,O(CC)c1c2OC3C(O)C=CC4C53c2c(cc1)CC4N(C)CC5,http://dx.doi.org/10.1021/ci800406y,,,,
OGHNVEJMJSYVRP-UHFFFAOYSA-N,,-4.2557,,ONSchallenge,water,O,O(CCNCC(O)COc1c2c([nH]c3c2cccc3)ccc1)c1c(OC)cccc1,http://dx.doi.org/10.1021/ci800406y,,,,
OGJPXUAPXNRGGI-UHFFFAOYSA-N,,-2.81581,,ONSchallenge,water,O,Fc1c(N2CCNCC2)cc2n(CC)cc(C(=O)O)c(=O)c2c1,http://www.springerlink.com/content/um5p375020237780/,http://dx.doi.org/10.1021/ci800406y,http://dx.doi.org/10.1021/ci800406y,,
OISVCGZHLKNMSJ-UHFFFAOYSA-N,,0.45,,ONSchallenge,water,O,Cc1nc(C)ccc1,http://dx.doi.org/10.1021/ci800406y,,,,
OJPDDQSCZGTACX-UHFFFAOYSA-N,,-0.73,,ONSchallenge,water,O,OCCN(CCO)c1ccccc1,http://dx.doi.org/10.1021/ci800406y,,,,
OJXOXNIZNJIMLU-UHFFFAOYSA-N,,-2.861,,ONSchallenge,water,O,S(=O)(=O)(N)c1scc(C(=O)c2ccc(O)cc2)c1,http://dx.doi.org/10.1021/ci800406y,,,,
OKKJLVBELUTLKV-UHFFFAOYSA-N,,1.57,,ONSchallenge,water,O,OC,http://dx.doi.org/10.1021/ci800406y,,,,
OKQHSIGMOWQUIK-UHFFFAOYSA-N,,-1.078,,ONSchallenge,water,O,O(CCO)Cn1c2nc(N)ncc2nc1,http://dx.doi.org/10.1021/ci800406y,,,,
OKXVARYIKDXAEO-UHFFFAOYSA-N,,-0.72,,ONSchallenge,water,O,OC(C(C)(C)C)(C)C,http://dx.doi.org/10.1021/ci800406y,http://dx.doi.org/10.1021/ci800406y,,,
ONKUXPIBXRRIDU-UHFFFAOYSA-N,,-3.509,,ONSchallenge,water,O,O=C(OCC)CCCCCCCCC(=O)OCC,http://dx.doi.org/10.1021/ci800406y,,,,
ONUFESLQCSAYKA-UHFFFAOYSA-N,,-4.38,,ONSchallenge,water,O,Clc1cc(Cl)cc(N2C(=O)N(C(=O)NC(C)C)CC2=O)c1,http://dx.doi.org/10.1021/ci800406y,,,,
ONXPZLFXDMAPRO-UHFFFAOYSA-N,,-11.69897,,ONSchallenge,water,O,Clc1c(Cl)c(Cl)c(c(Cl)c1Cl)c1c(Cl)c(Cl)c(Cl)c(Cl)c1Cl,http://dx.doi.org/10.1021/ci800406y,http://dx.doi.org/10.1021/ci800406y,,,
OPNPQXLQERQBBV-UHFFFAOYSA-N,,-2.68,,ONSchallenge,water,O,BrC(C(=O)NC(=O)N)(CC)CC,http://dx.doi.org/10.1021/ci800406y,,,,
OQANPHBRHBJGNZ-BKUYFWCQSA-N,,-6.1367,,ONSchallenge,water,O,S(=O)(=O)(Nc1ncccc1)c1ccc(N/N=C/2\C=C(C(=O)O)C(=O)C=C2)cc1,http://dx.doi.org/10.1021/ci800406y,,,,
OQEBBZSWEGYTPG-UHFFFAOYSA-N,,1.08,,ONSchallenge,water,O,O=C(O)CC(N)C,http://dx.doi.org/10.1021/ci800406y,,,,
OQZCSNDVOWYALR-UHFFFAOYSA-N,,-4.05,,ONSchallenge,water,O,ClCC1C(Cl)C(=O)N(c2cc(C(F)(F)F)ccc2)C1,http://dx.doi.org/10.1021/ci800406y,,,,
ORNBQBCIOKFOEO-UHFFFAOYSA-N,,-4.65,,ONSchallenge,water,O,O=C(C)C1C2(C)C(C3C(C4(C)C(=CC3)CC(O)CC4)CC2)CC1,http://dx.doi.org/10.1021/ci800406y,,,,
OSSQSXOTMIGBCF-UHFFFAOYSA-N,,-4.24,,ONSchallenge,water,O,C(#C)CCCCCCC,http://dx.doi.org/10.1021/ci800406y,http://dx.doi.org/10.1021/ci800406y,,,
OTKXWJHPGBRXCR-UHFFFAOYSA-N,,-4.31,,ONSchallenge,water,O,Clc1c(OP(=S)(OC)OC)ccc([N+](=O)[O-])c1,http://dx.doi.org/10.1021/ci800406y,,,,
OTLNPYWUJOZPPA-UHFFFAOYSA-N,,-2.751,,ONSchallenge,water,O,O=[N+]([O-])c1ccc(C(=O)O)cc1,http://www.chemspider.com/Chemical-Structure.5882.html,http://dx.doi.org/10.1021/ci800406y,http://dx.doi.org/10.1021/ci800406y,,
OTQFXRBLGNEOGH-UHFFFAOYSA-N,,-9.0,,ONSchallenge,water,O,Clc1c2Oc3c(c(Cl)cc(Cl)c3)Oc2cc(Cl)c1,http://dx.doi.org/10.1021/ci800406y,,,,
OTVAEFIXJLOWRX-UHFFFAOYSA-N,,-2.15,,ONSchallenge,water,O,ClC(Cl)C(=O)NC(C(O)c1ccc(S(=O)(=O)C)cc1)CO,http://dx.doi.org/10.1021/ci800406y,,,,
OUDSBRTVNLOZBN-UHFFFAOYSA-N,,-3.68,,ONSchallenge,water,O,S(=O)(=O)(NC(=O)NN1CCCCCC1)c1ccc(C)cc1,http://dx.doi.org/10.1021/ci800406y,,,,
OWWVHQUOYSPNNE-UHFFFAOYSA-N,,-2.71,,ONSchallenge,water,O,O=C(OCCN(CC)CC)c1ccc(OCC)cc1,http://dx.doi.org/10.1021/ci800406y,,,,
OWZPCEFYPSAJFR-UHFFFAOYSA-N,,-3.38,,ONSchallenge,water,O,O=[N+]([O-])c1c(O)c(C(CC)C)cc([N+](=O)[O-])c1,http://dx.doi.org/10.1021/ci800406y,,,,
OXNIZHLAWKMVMX-UHFFFAOYSA-N,,-2.83,,ONSchallenge,water,O,O=[N+]([O-])c1c(O)c([N+](=O)[O-])cc([N+](=O)[O-])c1,http://dx.doi.org/10.1021/ci800406y,,,,
OXQGTIUCKGYOAA-UHFFFAOYSA-N,,-0.81,,ONSchallenge,water,O,O=C(O)C(CC)CC,http://dx.doi.org/10.1021/ci800406y,,,,
OZWKMVRBQXNZKK-UHFFFAOYSA-N,,-3.259,,ONSchallenge,water,O,O=C(c1n2c(C(C(=O)O)CC2)cc1)c1ccccc1,http://dx.doi.org/10.1021/ci800406y,,,,
PAMIQIKDUOTOBW-UHFFFAOYSA-N,,0.23,,ONSchallenge,water,O,CN1CCCCC1,http://dx.doi.org/10.1021/ci800406y,,,,
PAYRUJLWNCNPSJ-UHFFFAOYSA-N,,-0.41,,ONSchallenge,water,O,Nc1ccccc1,http://dx.doi.org/10.1021/ci800406y,,,,
PBAYDYUZOSNJGU-UHFFFAOYSA-N,,-1.099,,ONSchallenge,water,O,O=C(O)c1oc(C(=O)O)cc(=O)c1,http://dx.doi.org/10.1021/ci800406y,,,,
PBBGSZCBWVPOOL-UHFFFAOYSA-N,,-4.43,,ONSchallenge,water,O,Oc1ccc(C(C(CC)c2ccc(O)cc2)CC)cc1,http://dx.doi.org/10.1021/ci800406y,,,,
PBMFSQRYOILNGV-UHFFFAOYSA-N,,1.1,,ONSchallenge,water,O,n1ncccc1,http://dx.doi.org/10.1021/ci800406y,,,,
PDQAZBWRQCGBEV-UHFFFAOYSA-N,,-0.71,,ONSchallenge,water,O,S=C1NCCN1,http://dx.doi.org/10.1021/ci800406y,,,,
PDRGHUMCVRDZLQ-UHFFFAOYSA-N,,-5.24,,ONSchallenge,water,O,O=C1C2(C)C(c3c(c4c(cc(O)cc4)cc3)CC2)CC1,http://dx.doi.org/10.1021/ci800406y,,,,
PEDCQBHIVMGVHV-UHFFFAOYSA-N,,1.12,,ONSchallenge,water,O,OC(CO)CO,http://dx.doi.org/10.1021/ci800406y,,,,
PEQHIRFAKIASBK-UHFFFAOYSA-N,,-7.8,,ONSchallenge,water,O,C(c1ccccc1)(c1ccccc1)(c1ccccc1)c1ccccc1,http://dx.doi.org/10.1039/c1nj20863b,,,,
PFIADAMVCJPXSF-UHFFFAOYSA-N,,-4.41,,ONSchallenge,water,O,Clc1c(OC)cc(Cl)c(OC)c1,http://dx.doi.org/10.1021/ci800406y,,,,
PHEOVVDXTQVHAZ-UHFFFAOYSA-N,,-4.58,,ONSchallenge,water,O,O=C(OCC(=O)C1(O)C2(C)C(C3C(C4(C)C(=CC(=O)C=C4)CC3)C(O)C2)CC1)C(C)(C)C,http://dx.doi.org/10.1021/ci800406y,,,,
PHTQWCKDNZKARW-UHFFFAOYSA-N,,-0.52,,ONSchallenge,water,O,OCCC(C)C,http://dx.doi.org/10.1021/ci800406y,http://dx.doi.org/10.1021/ci800406y,,,
PJANXHGTPQOBST-VAWYXSNFSA-N,,-5.790116,,ONSchallenge,water,O,C(=C\c1ccccc1)/c1ccccc1,http://dx.doi.org/10.1080/00319100008030280,,,,
PJGSXYOJTGTZAV-UHFFFAOYSA-N,,-0.72,,ONSchallenge,water,O,O=C(C(C)(C)C)C,http://dx.doi.org/10.1021/ci800406y,,,,
PKOFBDHYTMYVGJ-UHFFFAOYSA-N,,-1.61,,ONSchallenge,water,O,S(=O)(=O)(N)c1ccc(NC(=O)C)cc1,http://dx.doi.org/10.1021/ci800406y,,,,
PLAZTCDQAHEYBI-UHFFFAOYSA-N,,-2.31988,,ONSchallenge,water,O,O=[N+]([O-])c1c(C)cccc1,http://dx.doi.org/10.1021/ci800406y,http://dx.doi.org/10.1021/ci800406y,,,
PNVJTZOFSHSLTO-UHFFFAOYSA-N,,-4.57,,ONSchallenge,water,O,S=P(OC)(OC)Oc1cc(C)c(SC)cc1,http://dx.doi.org/10.1021/ci800406y,,,,
POAOYUHQDCAZBD-UHFFFAOYSA-N,,-0.42,,ONSchallenge,water,O,O(CCO)CCCC,http://dx.doi.org/10.1021/ci800406y,http://dx.doi.org/10.1021/ci800406y,,,
POULHZVOKOAJMA-UHFFFAOYSA-N,,-4.62,,ONSchallenge,water,O,O=C(O)CCCCCCCCCCC,http://dx.doi.org/10.1021/ci800406y,,,,
POZRVZJJTULAOH-UHFFFAOYSA-N,,-5.508497,,ONSchallenge,water,O,OC1(C#C)C2(C)C(C3C(C4(C)C(=Cc5oncc5C4)CC3)CC2)CC1,http://dx.doi.org/10.1021/ci800406y,,,,
PPQNQXQZIWHJRB-UHFFFAOYSA-N,,-7.939529,,ONSchallenge,water,O,Cc1c2c3c(cc4c5c(ccc4c3CC2)cccc5)cc1,http://dx.doi.org/10.1021/ci800406y,http://dx.doi.org/10.1021/ci800406y,,,
PQSUYGKTWSAVDQ-ZVIOFETBSA-N,,-3.85,,ONSchallenge,water,O,O=C(CO)[C@@H]1[C@]2(C=O)[C@H]([C@H]3[C@H]([C@@H](O)C2)[C@]2(C)C(=CC(=O)CC2)CC3)CC1,http://dx.doi.org/10.1021/ci800406y,http://dx.doi.org/10.1021/ci800406y,,,
PRLMFHYBTOQSLN-UHFFFAOYSA-N,,-2.68,,ONSchallenge,water,O,S(C)c1nc(N(C)C)nc(N(C)C)n1,http://dx.doi.org/10.1021/ci800406y,,,,
PTFJIKYUEPWBMS-UHFFFAOYSA-N,,-6.12,,ONSchallenge,water,O,FC(F)(F)c1cc([N+](=O)[O-])c(N(CC(=C)C)CC)c([N+](=O)[O-])c1,http://dx.doi.org/10.1021/ci800406y,,,,
PUFQVTATUTYEAL-UHFFFAOYSA-N,,-3.79357,,ONSchallenge,water,O,O=C(NCCN(CC)CC)c1c2c(nc(OCCCC)c1)cccc2,http://dx.doi.org/10.1021/ci800406y,http://dx.doi.org/10.1021/ci800406y,,,
PUIYMUZLKQOUOZ-UHFFFAOYSA-N,,-3.52058,,ONSchallenge,water,O,O=C(N(C)C)Nc1ccc(C(C)C)cc1,http://dx.doi.org/10.1021/ci800406y,http://dx.doi.org/10.1021/ci800406y,,,
PUJDIJCNWFYVJX-UHFFFAOYSA-N,,-0.35,,ONSchallenge,water,O,O=C(OCc1ccccc1)N,http://dx.doi.org/10.1021/ci800406y,,,,
PUXBGTOOZJQSKH-UHFFFAOYSA-N,,-4.6983,,ONSchallenge,water,O,Clc1cc2c([nH]c3c2ccc(C(C(=O)O)C)c3)cc1,http://dx.doi.org/10.1021/ci800406y,,,,
PWATWSYOIIXYMA-UHFFFAOYSA-N,,-4.64,,ONSchallenge,water,O,C(CCc1ccccc1)CC,http://dx.doi.org/10.1021/ci800406y,http://dx.doi.org/10.1021/ci800406y,,,
PWNAWOCHVWERAR-UHFFFAOYSA-N,,-6.779999,,ONSchallenge,water,O,Clc1c(CN(CC)c2c([N+](=O)[O-])cc(C(F)(F)F)cc2[N+](=O)[O-])c(F)ccc1,http://dx.doi.org/10.1021/ci800406y,,,,
PXWLVJLKJGVOKE-UHFFFAOYSA-N,,-1.908,,ONSchallenge,water,O,O=c1n(n(C)c(C)c1C(C)C)c1ccccc1,http://dx.doi.org/10.1021/ci800406y,,,,
PXWUKZGIHQRDHL-UHFFFAOYSA-N,,-2.08,,ONSchallenge,water,O,O(C)c1nc(NC(C)C)nc(NCC)n1,http://dx.doi.org/10.1021/ci800406y,,,,
PYGXAGIECVVIOZ-UHFFFAOYSA-N,,-3.72126,,ONSchallenge,water,O,O=C(OCCCC)CCCCCCCCC(=O)OCCCC,http://dx.doi.org/10.1021/ci800406y,http://dx.doi.org/10.1021/ci800406y,,,
QANMHLXAZMSUEX-UHFFFAOYSA-N,,-3.946,,ONSchallenge,water,O,N(Cc1occc1)c1ncnc2[nH]cnc12,http://dx.doi.org/10.1021/ci800406y,,,,
QAYICIQNSGETAS-UHFFFAOYSA-N,,-2.13,,ONSchallenge,water,O,S=C1N(C)CN(C)CS1,http://dx.doi.org/10.1021/ci800406y,,,,
QBSJMKIUCUGGNG-UHFFFAOYSA-N,,-2.86,,ONSchallenge,water,O,O=C(Oc1c(C(C)C)cccc1)NC,http://dx.doi.org/10.1021/ci800406y,,,,
QBYJBZPUGVGKQQ-SJJAEHHWSA-N,,-6.56228,,ONSchallenge,water,O,ClC1(Cl)[C@]2(Cl)C(=C(Cl)[C@@]1(Cl)[C@@H]1[C@H]2[C@H]2C=C[C@@H]1C2)Cl,http://dx.doi.org/10.1021/ci800406y,http://dx.doi.org/10.1021/ci800406y,,,
QCDWFXQBSFUVSP-UHFFFAOYSA-N,,-0.70497,,ONSchallenge,water,O,O(CCO)c1ccccc1,http://dx.doi.org/10.1021/ci800406y,http://dx.doi.org/10.1021/ci800406y,,,
QCKHVNQHBOGZER-UHFFFAOYSA-N,,-6.98,,ONSchallenge,water,O,Brc1c(Br)cc(Br)c(Br)c1,http://dx.doi.org/10.1021/ci800406y,,,,
QCRFMSUKWRQZEM-UHFFFAOYSA-N,,-0.88,,ONSchallenge,water,O,OC1CCCCCC1,http://dx.doi.org/10.1021/ci800406y,,,,
QFMDFTQOJHFVNR-UHFFFAOYSA-N,,-7.04,,ONSchallenge,water,O,ClC(Cl)C(c1ccc(CC)cc1)c1ccc(CC)cc1,http://dx.doi.org/10.1021/ci800406y,,,,
QGBSISYHAICWAH-UHFFFAOYSA-N,,-0.31,,ONSchallenge,water,O,N#CN=C(N)N,http://dx.doi.org/10.1021/ci800406y,,,,
QHTQREMOGMZHJV-UHFFFAOYSA-N,,-3.934,,ONSchallenge,water,O,Clc1ccc(CSC(=O)N(CC)CC)cc1,http://dx.doi.org/10.1021/ci800406y,,,,
QHXDTLYEHWXDSO-UHFFFAOYSA-N,,-4.41,,ONSchallenge,water,O,Clc1nc(N(CC)CC)nc(N(CC)CC)n1,http://dx.doi.org/10.1021/ci800406y,,,,
QIBWCUCLHZVYNL-UHFFFAOYSA-N,,-3.32,,ONSchallenge,water,O,O=c1n(C)c2c(n(CC)c3ncccc13)cccc2,http://dx.doi.org/10.1021/ci800406y,,,,
QIGBRXMKCJKVMJ-UHFFFAOYSA-N,,-0.17,,ONSchallenge,water,O,Oc1ccc(O)cc1,http://dx.doi.org/10.1021/ci800406y,,,,
QIQXTHQIDYTFRH-UHFFFAOYSA-N,,-5.68,,ONSchallenge,water,O,O=C(O)CCCCCCCCCCCCCCCCC,http://dx.doi.org/10.1021/ci800406y,,,,
QKLSCPPJEVXONT-UHFFFAOYSA-N,,-2.54,,ONSchallenge,water,O,S(=O)(=O)(Nc1nc(C)nc(OC)c1)c1ccc(N)cc1,http://dx.doi.org/10.1021/ci800406y,,,,
QNAYBMKLOCPYGJ-UHFFFAOYSA-N,,0.271842,,ONSchallenge,water,O,O=C(O)C(N)C,http://books.google.com/books?id=tfpQJjWcRs4C,,,,
QNIUOGIMJWORNZ-UHFFFAOYSA-N,,-3.84,,ONSchallenge,water,O,O=C(OCCN(CC)CC)c1ccc(OCCCC)cc1,http://dx.doi.org/10.1021/ci800406y,,,,
QPPBRPIAZZHUNT-UHFFFAOYSA-N,,-2.8209,,ONSchallenge,water,O,S(=O)(=O)(Nc1nc(C)ccn1)c1ccc(N)cc1,http://www.springerlink.com/content/um5p375020237780/,http://dx.doi.org/10.1021/ci800406y,http://dx.doi.org/10.1021/ci800406y,http://dx.doi.org/10.1021/ci800406y,
QQBKLRXLVRDKEB-UHFFFAOYSA-N,,-4.469,,ONSchallenge,water,O,O=C1N(CO)C(=O)NC1(c1ccccc1)c1ccccc1,http://dx.doi.org/10.1021/ci800406y,,,,
QQODLKZGRKWIFG-UHFFFAOYSA-N,,-7.339998,,ONSchallenge,water,O,ClC(=CC1C(C)(C)C1C(=O)OC(C#N)c1cc(Oc2ccccc2)c(F)cc1)Cl,http://dx.doi.org/10.1021/ci800406y,,,,
QRXWMOHMRWLFEY-UHFFFAOYSA-N,,0.01,,ONSchallenge,water,O,O=C(NN)c1ccncc1,http://dx.doi.org/10.1021/ci800406y,,,,
QSNYNWOQOIJCFV-UHFFFAOYSA-N,,-5.312,,ONSchallenge,water,O,Fc1c(N2CC(NC)C2)c(F)cc2c(=O)c(C(=O)O)cn(C3CC3)c12,http://dx.doi.org/10.1021/ci800406y,,,,
QTBSBXVTEAMEQO-UHFFFAOYSA-N,,1.22,,ONSchallenge,water,O,O=C(O)C,http://dx.doi.org/10.1021/ci800406y,,,,
QTSBFJRVBUIZJC-UHFFFAOYSA-N,,-3.523,,ONSchallenge,water,O,Ic1cc(Nc2ncnc3c2cc2OC(COC)COc2c3)ccc1,http://dx.doi.org/10.1021/ci800406y,,,,
QUBSMEXIPLOOMC-UHFFFAOYSA-N,,-2.594,,ONSchallenge,water,O,S(=O)(=O)(N)c1sc2SCCC(O)c2c1,http://dx.doi.org/10.1021/ci800406y,,,,
QUEKGYQTRJVEQC-UHFFFAOYSA-N,,-1.74811,,ONSchallenge,water,O,Clc1c(C(=O)O)cc([N+](=O)[O-])cc1,http://www.chemspider.com/Chemical-Structure.16359.html,,,,
QUIKDFWIKDMXIO-UHFFFAOYSA-N,,-1.045,,ONSchallenge,water,O,O=C(COC(=O)c1ccccc1)N1C(C(=O)N)CCC1,http://dx.doi.org/10.1021/ci800406y,,,,
QUWAJPZDCZDTJS-UHFFFAOYSA-N,,-3.319,,ONSchallenge,water,O,S(=O)(=O)(c1c(O)cccc1)c1c(O)cccc1,http://dx.doi.org/10.1021/ci800406y,,,,
QVHJQCGUWFKTSE-YFKPBYRVSA-N,,-0.74473,,ONSchallenge,water,O,O=C(OC(C)(C)C)N[C@H](C(=O)O)C,http://onschallenge.wikispaces.com/Exp194,,,,
QWCJHSGMANYXCW-UHFFFAOYSA-N,,-2.32,,ONSchallenge,water,O,S(=O)(=O)(Nc1n(c2ccccc2)ncc1)c1ccc(N)cc1,http://dx.doi.org/10.1021/ci800406y,,,,
QWCKQJZIFLGMSD-UHFFFAOYSA-N,,0.31,,ONSchallenge,water,O,O=C(O)C(N)CC,http://dx.doi.org/10.1021/ci800406y,,,,
QWUWMCYKGHVNAV-UHFFFAOYSA-N,,-4.62,,ONSchallenge,water,O,C(Cc1ccccc1)c1ccccc1,http://dx.doi.org/10.1021/ci800406y,http://dx.doi.org/10.1021/ci800406y,,,
QWVGKYWNOKOFNN-UHFFFAOYSA-N,,-0.62,,ONSchallenge,water,O,Oc1c(C)cccc1,http://dx.doi.org/10.1021/ci800406y,,,,
QXBUYALKJGBACG-UHFFFAOYSA-N,,-5.593,,ONSchallenge,water,O,CN1c2c(Sc3c1cccc3)cccc2,http://dx.doi.org/10.1021/ci800406y,,,,
QXJKBPAVAHBARF-UHFFFAOYSA-N,,-4.8,,ONSchallenge,water,O,Clc1cc(Cl)cc(N2C(=O)C3(C)C(C)(C2=O)C3)c1,http://dx.doi.org/10.1021/ci800406y,,,,
QXKHYNVANLEOEG-UHFFFAOYSA-N,,-3.58438,,ONSchallenge,water,O,O(C)c1c2occc2cc2c1oc(=O)cc2,http://dx.doi.org/10.1021/ci800406y,http://dx.doi.org/10.1021/ci800406y,,,
QYPNKSZPJQQLRK-UHFFFAOYSA-N,,-5.628,,ONSchallenge,water,O,O=C(N(NC(=O)c1ccc(CC)cc1)C(C)(C)C)c1cc(C)cc(C)c1,http://dx.doi.org/10.1021/ci800406y,,,,
RDJGWRFTDZZXSM-UHFFFAOYSA-N,,-2.222,,ONSchallenge,water,O,O(Cc1ccccc1)c1c2OC3C(O)C=CC4C53c2c(cc1)CC4N(C)CC5,http://dx.doi.org/10.1021/ci800406y,,,,
RDLPVSKMFDYCOR-UEKVPHQBSA-N,,-1.232,,ONSchallenge,water,O,O=C(N[C@@H]1C(=O)N2C(=C(C)CS[C@H]12)C(=O)O)[C@H](N)C1=CCC=CC1,http://www.springerlink.com/content/um5p375020237780/,,,,
RDXLYGJSWZYTFJ-UHFFFAOYSA-N,,-3.22,,ONSchallenge,water,O,O=[N+]([O-])c1sc(N2C(=O)NCC2)nc1,http://dx.doi.org/10.1021/ci800406y,,,,
REIUXOLGHVXAEO-UHFFFAOYSA-N,,-6.349999,,ONSchallenge,water,O,OCCCCCCCCCCCCCCC,http://dx.doi.org/10.1021/ci800406y,,,,
REKQLYUAUXYJSZ-UHFFFAOYSA-N,,-1.151,,ONSchallenge,water,O,O=C(NN)c1ccc(OC)cc1,http://dx.doi.org/10.1021/ci800406y,,,,
RFDAIACWWDREDC-UHFFFAOYSA-N,,-5.15,,ONSchallenge,water,O,O=C(O)CNC(=O)CCC(C)C1C2(C)C(O)CC3C4(C)C(CC(O)C3C2CC1)CC(O)CC4,http://dx.doi.org/10.1021/ci800406y,,,,
RFMMMVDNIPUKGG-UHFFFAOYSA-N,,-0.711,,ONSchallenge,water,O,O=C(O)C(NC(=O)C)CCC(=O)O,http://dx.doi.org/10.1021/ci800406y,,,,
RGCVKNLCSQQDEP-UHFFFAOYSA-N,,-4.24034,,ONSchallenge,water,O,Clc1cc2N(CCCN3CCN(CCO)CC3)c3c(Sc2cc1)cccc3,http://www.springerlink.com/content/um5p375020237780/,http://dx.doi.org/10.1021/ci800406y,,,
RGXWDWUGBIJHDO-UHFFFAOYSA-N,,-4.1,,ONSchallenge,water,O,O=C(OCC)CCCCCCCCC,http://dx.doi.org/10.1021/ci800406y,,,,
RHIROFAGUQOFLU-UHFFFAOYSA-N,,-11.522879,,ONSchallenge,water,O,Clc1c(Cl)c(Cl)c2c(c1Cl)oc1c(Cl)c(Cl)c(Cl)c(Cl)c21,http://dx.doi.org/10.1021/ci800406y,,,,
RIGBPMDIGYBTBJ-UHFFFAOYSA-N,,-4.21,,ONSchallenge,water,O,S(=O)(=O)(NC(=O)NC1CCCCC1)c1ccc(C)cc1,http://dx.doi.org/10.1021/ci800406y,,,,
RIZMRRKBZQXFOY-UHFFFAOYSA-N,,-5.54,,ONSchallenge,water,O,S=P(SCSP(=S)(OCC)OCC)(OCC)OCC,http://dx.doi.org/10.1021/ci800406y,,,,
RJKGJBPXVHTNJL-UHFFFAOYSA-N,,-3.58886,,ONSchallenge,water,O,O=[N+]([O-])c1c2c(ccc1)cccc2,http://www.springerlink.com/content/yg24334001765rj3/,http://dx.doi.org/10.1021/ci800406y,http://dx.doi.org/10.1021/ci800406y,,
RJMIEHBSYVWVIN-UHFFFAOYSA-N,,-4.308,,ONSchallenge,water,O,O=C(O)C(C)c1ccc(N2C(=O)c3c(cccc3)C2)cc1,http://www.springerlink.com/content/um5p375020237780/,,,,
RJMUSRYZPJIFPJ-UHFFFAOYSA-N,,-4.7,,ONSchallenge,water,O,Clc1c(NC(=O)c2c(O)ccc(Cl)c2)ccc([N+](=O)[O-])c1,http://dx.doi.org/10.1021/ci800406y,,,,
RJNJWHFSKNJCTB-UHFFFAOYSA-N,,-0.95,,ONSchallenge,water,O,O=C(NCc1ccccc1)N,http://dx.doi.org/10.1021/ci800406y,,,,
RJTJVVYSTUQWNI-UHFFFAOYSA-N,,-4.29,,ONSchallenge,water,O,C(C)c1cc2c(cc1)cccc2,http://dx.doi.org/10.1021/ci800406y,,,,
RJUFJBKOKNCXHH-UHFFFAOYSA-N,,-0.14,,ONSchallenge,water,O,O=C(OC)CC,http://dx.doi.org/10.1021/ci800406y,http://dx.doi.org/10.1021/ci800406y,,,
RKUNBYITZUJHSG-LGGPCSOHSA-N,,-1.724,,ONSchallenge,water,O,O=C(OC1CC2N(C)C(C1)CC2)[C@H](CO)c1ccccc1,http://www.springerlink.com/content/um5p375020237780/,,,,
RKWGIWYCVPQPMF-UHFFFAOYSA-N,,-3.12561,,ONSchallenge,water,O,Clc1ccc(S(=O)(=O)NC(=O)NCCC)cc1,http://dx.doi.org/10.1021/ci800406y,http://dx.doi.org/10.1021/ci800406y,,,
RLBIQVVOMOPOHC-UHFFFAOYSA-N,,-3.68,,ONSchallenge,water,O,S=P(OC)(OC)Oc1ccc([N+](=O)[O-])cc1,http://dx.doi.org/10.1021/ci800406y,,,,
RLFWWDJHLFCNIJ-UHFFFAOYSA-N,,-0.62,,ONSchallenge,water,O,O=c1n(n(C)c(C)c1N)c1ccccc1,http://dx.doi.org/10.1021/ci800406y,,,,
RLLPVAHGXHCWKJ-UHFFFAOYSA-N,,-6.29,,ONSchallenge,water,O,ClC(=CC1C(C)(C)C1C(=O)OCc1cc(Oc2ccccc2)ccc1)Cl,http://dx.doi.org/10.1021/ci800406y,http://dx.doi.org/10.1021/ci800406y,,,
RLPGDEORIPLBNF-UHFFFAOYSA-N,,-4.8,,ONSchallenge,water,O,C(C(C)C)(C(C)C)C,http://dx.doi.org/10.1021/ci800406y,,,,
RLSSMJSEOOYNOY-UHFFFAOYSA-N,,-0.68,,ONSchallenge,water,O,Oc1cc(C)ccc1,http://dx.doi.org/10.1021/ci800406y,,,,