StdInChIKey,SMILES,LogS,T,Source,Solvent,Solvent_SMILES,Smilesa,REF1,REF2,REF3,REF4,REF5
JAFTYXPDTZSKST-UHFFFAOYSA-N,CCOC1(C(c2ccccc2)Br)C(=O)N(C)C(=O)N1,-1.708604119,20.0,Reaxys,ethanol,CCO,,,,,,
JAKVEOCMEMGHGB-YFKPBYRVSA-N,C#CCSC[C@@H](C(=O)O)N,-2.840239779,25.0,Reaxys,ethanol,CCO,,,,,,
JCEMNGURUDMGBM-UHFFFAOYSA-N,C1CCC(CC1)C(=O)N(C1CCCCC1)O,-0.766267394,25.0,Reaxys,ethanol,CCO,,,,,,
JCEXJKGPRTWMSQ-UHFFFAOYSA-N,CC(C(=NNC(=O)N)C)c1ccccc1,-1.353697444,20.0,Reaxys,ethanol,CCO,,,,,,
JCFJSQZXNOMXCP-UHFFFAOYSA-N,CC1(C)C2CCC1(C)C(=NO)C2=NO,0.707192548,20.0,Reaxys,ethanol,CCO,,,,,,
JCRIDWXIBSEOEG-UHFFFAOYSA-N,c1cc(c(c(c1)[N+](=O)[O-])O)[N+](=O)[O-],-0.627467868,14.0,Reaxys,ethanol,CCO,,,,,,
JDCXPRVWBPDZRZ-UHFFFAOYSA-N,Cc1ccc(cc1)Nc1[nH]c2ccc(C)cc2n1,-0.946584039,15.0,Reaxys,ethanol,CCO,,,,,,
JDTWZSUNGHMMJM-FSPLSTOPSA-N,CC[C@H](C)[C@@H](C(=O)O)NC(=O)C,0.713730033,20.0,Reaxys,ethanol,CCO,,,,,,
JEPXWPONFKFPCB-UHFFFAOYSA-N,c1cc2c(Cc3cc(ccc23)N)cc1Cl,-1.21472305,18.0,Reaxys,ethanol,CCO,,,,,,
JFNWFXVFBDDWCX-UHFFFAOYSA-N,Cc1c(C)noc1N(C(=O)C)S(=O)(=O)c1ccc(cc1)N,-1.734569649,20.0,Reaxys,ethanol,CCO,,,,,,
JGCSKOVQDXEQHI-UHFFFAOYSA-N,c1ccc2c(c1)nc1cccc(c1n2)C(=O)O,-2.19382051,25.04,Reaxys,ethanol,CCO,,,,,,
JGOAZQAXRONCCI-UHFFFAOYSA-N,c1ccc(cc1)C=NNc1ccccc1,-1.139914495,24.0,Reaxys,ethanol,CCO,,,,,,
JGRXMPYUTJLTKT-UHFFFAOYSA-N,c1cc(cc(c1)Cl)c1cc(c(C(=O)NCC(=O)O)nc1)O,-0.955241939,22.0,Reaxys,ethanol,CCO,,,,,,
JGVTUAUTAMXVAF-UHFFFAOYSA-N,Cc1cccc2cc(C(=O)O)c(=O)oc12,-0.952082606,14.0,Reaxys,ethanol,CCO,,,,,,
JIAUERZQPRONCY-UHFFFAOYSA-N,CCC(CC)OC(=O)NC(=O)N,-1.242788812,18.0,Reaxys,ethanol,CCO,,,,,,
JJSPNRXDWGKSHD-UHFFFAOYSA-N,COc1ccc(c(c1)OC)/N=C/c1ccc(cc1N(=O)=O)N(=O)=O,-3.22184875,22.0,Reaxys,ethanol,CCO,,,,,,
JKFZKHRPJOYSAM-UHFFFAOYSA-N,C(CCNC(=O)N)CC(=O)O,-2.118229479,25.0,Reaxys,ethanol,CCO,,,,,,
JLHPNRSNIVUKGA-UHFFFAOYSA-N,CC(C(=O)O)NC(=O)Nc1cccc2ccccc12,-1.481419875,25.0,Reaxys,ethanol,CCO,,,,,,
JLYXXMFPNIAWKQ-GNIYUCBRSA-N,[C@@H]1([C@@H]([C@H]([C@H]([C@@H]([C@H]1Cl)Cl)Cl)Cl)Cl)Cl,-0.760220113,20.0,Reaxys,ethanol,CCO,,,,,,
JLZUZNKTTIRERF-UHFFFAOYSA-N,c1ccc(cc1)C(=C(c1ccccc1)c1ccccc1)c1ccccc1,-2.618629819,20.0,Reaxys,ethanol,CCO,,,,,,
JMXNBIDTNISOTA-MRLBHPIUSA-N,C1CCN2C[C@H]3C[C@H](CN4CCC[C@@H]([C@H]34)O)[C@@H]2C1,-1.10546509,17.0,Reaxys,ethanol,CCO,,,,,,
JPIYZTWMUGTEHX-UHFFFAOYSA-N,CN(C)c1ccc(cc1)C(=N)c1ccc(cc1)N(C)C,-0.582021133,20.0,Reaxys,ethanol,CCO,,,,,,
JQKCQQVJGSNQFB-WCWDXBQESA-N,CCCC(Cc1ccccc1)/N(N(\O)/C(CCC)Cc1ccccc1)/O,0.041390235,25.0,Reaxys,ethanol,CCO,,,,,,
JRQDVRIQJJPHEQ-UHFFFAOYSA-N,c1cc(c(c(c1)[N+](=O)[O-])Cl)C(=O)O,-0.207507264,25.0,Reaxys,ethanol,CCO,,,,,,
JSSSSIRXRJUGAL-UHFFFAOYSA-N,c1ccc(cc1)C(=NNc1ccc(cc1[N+](=O)[O-])[N+](=O)[O-])c1ccccc1,-3.689890553,25.0,Reaxys,ethanol,CCO,,,,,,
JTEGQNOMFQHVDC-NKWVEPMBSA-N,c1cn([C@@H]2CS[C@H](CO)O2)c(=O)nc1N,-1.303423437,25.0,Reaxys,ethanol,CCO,,,,,,
JTGMTYWYUZDRBK-UHFFFAOYSA-N,Cc1c2ccccc2c(C)c2ccccc12,-2.235290614,20.0,Reaxys,ethanol,CCO,,,,,,
JTVBCXIVJCAUBK-UHFFFAOYSA-N,Cn1cc(c(=O)[nH]c1=O)[N+](=O)[O-],-2.172582627,17.0,Reaxys,ethanol,CCO,,,,,,
JUFADMDNFLYBPC-UHFFFAOYSA-N,CCCCCC(=O)NCCNC(=O)CCCCC,-0.597324383,25.0,Reaxys,ethanol,CCO,,,,,,
JUVIOZPCNVVQFO-HBGVWJBISA-N,C=C(C)[C@H]1Cc2c(ccc3C(=O)[C@H]4c5cc(c(cc5OC[C@H]4Oc23)OC)OC)O1,-2.294933337,20.0,Reaxys,ethanol,CCO,,,,,,
JWBYUXWEHYCVHA-BVYOUEPQSA-N,C[C@@H](Cc1ccccc1)N(O)N(O)[C@H](C)Cc2ccccc2,0.380203964,25.0,Reaxys,ethanol,CCO,,,,,,
JYGXADMDTFJGBT-VWUMJDOOSA-N,C[C@]12CCC(=O)C=C1CC[C@H]1[C@@H]3CC[C@](C(=O)CO)([C@@]3(C)C[C@@H]([C@H]21)O)O,-1.391988349,25.04,Reaxys,ethanol,CCO,,,,,,
JZFDKGFWNSQAHU-UHFFFAOYSA-N,CCc1ccc(cc1)C(=O)c1ccccc1C(=O)O,0.32238574,21.75,Reaxys,ethanol,CCO,,,,,,
JZODKRWQWUWGCD-UHFFFAOYSA-N,CC(C)(C)c1cc(c(cc1O)C(C)(C)C)O,0.157251372,24.89,Reaxys,ethanol,CCO,,,,,,
KBOQXVVZFSWICE-FIJLXMTKSA-N,C[C@]12CCC=CC1=CC[C@@H]1[C@@H]2CC[C@]2(C)[C@H](CC[C@]12O)c1ccc(=O)oc1,-2.910861465,20.0,Reaxys,ethanol,CCO,,,,,,
KCSGAVOYBPPIRL-UHFFFAOYSA-N,CCCCCC(=O)N(c1ccc(cc1)N(C)C)C(=O)Nc1ccc(cc1)N(C)C,-2.701037233,20.0,Reaxys,ethanol,CCO,,,,,,
KDFNXUATOIFLSG-UHFFFAOYSA-N,c1ccc(c(c1)Cl)OC(=O)NC(=O)N,-2.041611296,18.0,Reaxys,ethanol,CCO,,,,,,
KDYFGRWQOYBRFD-UHFFFAOYSA-N,C(CC(=O)O)C(=O)O,-0.170645968,20.0,Reaxys,ethanol,CCO,,,,,,
KJKGTLBNWUUCKQ-UHFFFAOYSA-N,c1ccc2c(c1)c1NC3=CC=CC(=Nc4c5ccccc5c([nH]4)N=c4c5ccccc5c(=Nc2[nH]1)[nH]4)C3,-0.420217749,25.0,Reaxys,ethanol,CCO,,,,,,
KJPXTDBDRLXUQN-UHFFFAOYSA-N,CC(=O)Oc1ccc(cc1C(=O)O)n1nc2ccccc2n1,-2.05739504,25.0,Reaxys,ethanol,CCO,,,,,,
KJXSIXMJHKAJOD-LSDHHAIUSA-N,c1c(cc(c(c1O)O)O)[C@@H]1[C@H](C(=O)c2c(cc(cc2O1)O)O)O,-0.275046998,25.0,Reaxys,ethanol,CCO,,,,,,
KKJPFYIKWNKDSH-WZIZPHDVSA-N,CC(CO)[C@H](C(=O)N[C@@H]1C2CC[C@@](C)([C@@H]1O)C2(C)C)O,-0.362324399,20.0,Reaxys,ethanol,CCO,,,,,,
KKWXXQXQVFLMOP-LSLJNABFSA-N,CC(=O)CC1=C(C(=O)O[C@@H]1C)C(C)(C)[C@@H]1C(=O)C(C)OC1=O,-0.693137174,20.0,Reaxys,ethanol,CCO,,,,,,
KOOOGBROHMNAPU-UHFFFAOYSA-N,c1ccc(c(c1)C(=O)N=[N+]=[N-])[N+](=O)[O-],-0.78430213,20.0,Reaxys,ethanol,CCO,,,,,,
KRKNYBCHXYNGOX-UHFFFAOYSA-N,C(C(=O)O)C(CC(=O)O)(C(=O)O)O,0.390786338,25.0,Reaxys,ethanol,CCO,,,,,,
KTFCASILCGCMLM-UHFFFAOYSA-N,C(CCCCCNCCCCCCCN)CCCCC(=O)O,-1.383693868,20.0,Reaxys,ethanol,CCO,,,,,,
KTHRQDFQEQQGDF-UHFFFAOYSA-N,CCCCCCCCCCCCCC(C(C(=O)O)O)O,-1.407459278,19.0,Reaxys,ethanol,CCO,,,,,,
KUXPBFJYMIIGBY-UHFFFAOYSA-N,COC(=O)C(C(C(=O)OC)OC(=O)c1ccccc1)OC(=O)c1ccccc1,-2.316835803,25.0,Reaxys,ethanol,CCO,,,,,,
KWHQDNKVVVTPFL-UHFFFAOYSA-N,c1ccc2c(c1)c1=Nc3cccc(=Nc4c5ccccc5c(N=c5cccc([nH]5)N=c2[nH]1)[nH]4)[nH]3,-1.681923089,24.9,Reaxys,ethanol,CCO,,,,,,
KWIUHFFTVRNATP-UHFFFAOYSA-N,C[N+](C)(C)CC(=O)[O-],-0.237499612,18.3,Reaxys,ethanol,CCO,,,,,,
KWRYMZHCQIOOEB-LBPRGKRZSA-N,C[C@@H](c1cc2ccc(cc2nc1c1ccccn1)F)Nc1c2c([nH]cn2)ncn1,0.240146748,20.0,Reaxys,ethanol,CCO,,,,,,
KXDAEFPNCMNJSK-UHFFFAOYSA-N,c1ccc(cc1)C(=O)N,0.138857616,25.0,Reaxys,ethanol,CCO,,,,,,
KYGZCKSPAKDVKC-UHFFFAOYSA-N,CCn1cc(c(=O)c2cc3c(cc12)OCO3)C(=O)O,-1.850758304,25.0,Reaxys,ethanol,CCO,,,,,,
KZNIFHPLKGYRTM-UHFFFAOYSA-N,c1cc(ccc1c1cc(=O)c2c(cc(cc2o1)O)O)O,-2.219563635,25.0,Reaxys,ethanol,CCO,,,,,,
KZSNJWFQEVHDMF-BYPYZUCNSA-N,CC(C)[C@@H](C(=O)O)N,-3.601867258,24.9,Reaxys,ethanol,CCO,,,,,,
KZTJCLJWIVFCLV-UHFFFAOYSA-N,CC(C(=O)O)N(CCC(=O)O)C(=O)C,-0.068248233,25.0,Reaxys,ethanol,CCO,,,,,,
LDVVMCZRFWMZSG-OLQVQODUSA-N,C1=CC[C@@H]2[C@H](C1)C(=O)N(C2=O)SC(Cl)(Cl)Cl,-2.015580865,26.0,Reaxys,ethanol,CCO,,,,,,
LFIFACPITLMARN-UHFFFAOYSA-N,CCN(CC)CCOC(=O)c1ccc(cc1)NC(=O)CCC(=O)O,-3.388272563,15.0,Reaxys,ethanol,CCO,,,,,,
LGGDXXJAGWBUSL-BKRJIHRRSA-N,CC(=O)O[C@H]1CC[C@H]2[C@H]3Cc4ccc(c5c4[C@@]2(CCN3C)[C@H]1O5)OC,-0.784715311,20.0,Reaxys,ethanol,CCO,,,,,,
LHJUVPXOXCFLCH-UHFFFAOYSA-N,c1ccc(cc1)c1cc(ccc1[N+](=O)[O-])O,0.054531415,25.0,Reaxys,ethanol,CCO,,,,,,
LHNVKVKZPHUYQO-SRWWVFQWSA-N,CC(=O)[C@@]12[C@@H](C[C@H]3[C@@H]4CCC5=CC(=O)CC[C@]5(C)[C@H]4CC[C@]13C)O2,-1.442176367,24.55,Reaxys,ethanol,CCO,,,,,,
LJCBXNYWNSNKJY-UHFFFAOYSA-N,CCOc1cc(c(cc1[N+](=O)[O-])[N+](=O)[O-])Cl,-1.54690736,25.0,Reaxys,ethanol,CCO,,,,,,
LJCWONGJFPCTTL-SSDOTTSWSA-N,c1cc(ccc1[C@H](C(=O)O)N)O,-3.793469596,25.22,Reaxys,ethanol,CCO,,,,,,
LKEGCXYQDMPMDD-UHFFFAOYSA-N,c1ccc(cc1)Nc1ccc(cc1N)Cl,-0.436730994,20.0,Reaxys,ethanol,CCO,,,,,,
LKHMZCUKGPUKEA-UHFFFAOYSA-N,COc1ccc(cc1)N=Cc1ccccc1,-1.500312969,22.0,Reaxys,ethanol,CCO,,,,,,
LKJNVSBOVUWHDE-UHFFFAOYSA-N,Cc1cc(ccc1Nc1c(cc(C)s1)C#N)N(=O)=O,-1.725700348,25.0,Reaxys,ethanol,CCO,,,,,,
LLOXZCFOAUCDAE-UHFFFAOYSA-N,c1ccc(cc1)P(=O)(c1ccccc1)c1cc(ccc1O)O,-0.964369565,25.1,Reaxys,ethanol,CCO,,,,,,
LMYRWZFENFIFIT-UHFFFAOYSA-N,Cc1ccc(cc1)S(=O)(=O)N,-0.047210424,24.99,Reaxys,ethanol,CCO,,,,,,
LNTHITQWFMADLM-UHFFFAOYSA-N,c1c(cc(c(c1O)O)O)C(=O)O,-0.057056573,25.04,Reaxys,ethanol,CCO,,,,,,
LOOJXSYHZHCBMU-UHFFFAOYSA-N,CCCC(CCC)(C1CCCCC1)C(=O)NO,-7.2e-06,26.0,Reaxys,ethanol,CCO,,,,,,
LOUPRKONTZGTKE-WZBLMQSHSA-N,C=C[C@H]1CN2CC[C@H]1C[C@H]2[C@@H](c1ccnc2ccc(cc12)OC)O,0.607805464,25.0,Reaxys,ethanol,CCO,,,,,,
LPEPZBJOKDYZAD-UHFFFAOYSA-N,c1ccc(c(c1)C(=O)O)Nc1cccc(c1)C(F)(F)F,-0.098819806,15.0,Reaxys,ethanol,CCO,,,,,,
LPHRUDILDCGDJM-UHFFFAOYSA-N,CC(C)c1cc(c(C)c(c1)N)N,-1.443202012,25.0,Reaxys,ethanol,CCO,,,,,,
LRQKBLKVPFOOQJ-UHFFFAOYSA-N,CCCCC(C(=O)[O-])[NH3+],-2.984312165,25.0,Reaxys,ethanol,CCO,,,,,,
LRQYSMQNJLZKPS-UHFFFAOYSA-N,Cc1ccc2ccc(C)cc2c1,0.074274412,22.65,Reaxys,ethanol,CCO,,,,,,
LRUIWCGKRGPZSC-UHFFFAOYSA-N,c1cc(cc(c1)Nc1ccc(cc1N)Cl)Cl,-1.558247295,20.0,Reaxys,ethanol,CCO,,,,,,
LSAFLTQKGRHWTF-ULBORTECSA-N,CCC(=Cc1ccco1)C=NNC(=O)N,-1.586482533,22.0,Reaxys,ethanol,CCO,,,,,,
LSPHULWDVZXLIL-LDWIPMOCSA-N,CC1(C)[C@H](CC[C@@]1(C)C(=O)O)C(=O)O,0.597868172,25.0,Reaxys,ethanol,CCO,,,,,,
LTTWKTVIELEIDC-UHFFFAOYSA-N,C=CC(CC)OC(=O)NC(=O)N,-1.015884705,18.0,Reaxys,ethanol,CCO,,,,,,
LUYAMNYBNTVQJG-UHFFFAOYSA-N,C(CS(=O)(=O)CCCl)Cl,-0.429952338,20.0,Reaxys,ethanol,CCO,,,,,,
LVEXDMBRIRBLTD-UHFFFAOYSA-N,CC(=C(c1ccccc1)O)C(=O)c1ccccc1,-1.289524726,20.0,Reaxys,ethanol,CCO,,,,,,
MALVFHHUZNLXFS-UHFFFAOYSA-N,Cc1c(C#N)c(c2ccccc2)n(c2ccccc2)n1,-2.479320814,20.0,Reaxys,ethanol,CCO,,,,,,
MATGKVZWFZHCLI-UHFFFAOYSA-N,COc1cc(ccc1O)CC1COC(=O)C1Cc1ccc(c(c1)OC)O,-0.702872483,18.0,Reaxys,ethanol,CCO,,,,,,
MBUKWVQKGHOBTG-UHFFFAOYSA-N,c1cc(cc(c1)[N+](=O)[O-])C(=O)N=[N+]=[N-],-1.432119612,20.0,Reaxys,ethanol,CCO,,,,,,
MBXIRNHACKAGPA-UHFFFAOYSA-N,c1c(c(cc(c1[N+](=O)[O-])O)O)[N+](=O)[O-],-2.222083205,25.0,Reaxys,ethanol,CCO,,,,,,
MDHAARLWBHZGIP-UHFFFAOYSA-N,Cc1ccc(C)c(c1)OP(=O)(Oc1cc(C)ccc1C)Oc1cc(C)ccc1C,-0.780751347,25.0,Reaxys,ethanol,CCO,,,,,,
MECHNRXZTMCUDQ-RKHKHRCZSA-N,CC(C)[C@@H](C)/C=C/[C@@H](C)[C@H]1CC[C@H]2/C(=C/C=C\3/C[C@H](CCC3=C)O)/CCC[C@]12C,-0.151257092,26.0,Reaxys,ethanol,CCO,,,,,,
MENUYOGJCXAFFU-UHFFFAOYSA-N,c1ccc(cc1)NN=C(C#N)C#N,-0.492149724,25.0,Reaxys,ethanol,CCO,,,,,,
METKIMKYRPQLGS-UHFFFAOYSA-N,CC(C)NCC(COc1ccc(cc1)CC(=O)N)O,-0.725034713,25.04,Reaxys,ethanol,CCO,,,,,,
MFEWNFVBWPABCX-UHFFFAOYSA-N,c1ccc(cc1)C(c1ccccc1)(C(c1ccccc1)(c1ccccc1)O)O,-2.484844146,25.0,Reaxys,ethanol,CCO,,,,,,
MHWLWQUZZRMNGJ-UHFFFAOYSA-N,CCn1cc(c(=O)c2ccc(C)nc12)C(=O)O,-2.450014266,25.0,Reaxys,ethanol,CCO,,,,,,
MIJYXULNPSFWEK-GTOFXWBISA-N,CC1(C)CC[C@@]2(CC[C@]3(C)C(=CC[C@@H]4[C@@]5(C)CC[C@@H](C(C)(C)[C@@H]5CC[C@@]34C)O)[C@@H]2C1)C(=O)O,-1.869666337,25.14,Reaxys,ethanol,CCO,,,,,,
MKNNAZIBCYBRNG-QZQOTICOSA-N,CC(C)COC(=O)c1ccc(cc1)N=Nc1ccc(cc1N)N,-0.68916985,25.0,Reaxys,ethanol,CCO,,,,,,
MKUXAQIIEYXACX-UHFFFAOYSA-N,C(COCn1cnc2c1[nH]c(N)nc2=O)O,-3.398339376,22.5,Reaxys,ethanol,CCO,,,,,,
MNHJLXNOILHBHI-OXAWKVHCSA-N,c1cc(C=C2COCC(=Cc3ccco3)C2=O)oc1,-2.408677432,20.0,Reaxys,ethanol,CCO,,,,,,
MNVLOIZGWLNEEE-UHFFFAOYSA-N,CC(CCC1CCCCC1)OC(=O)NC(=O)N,-2.007808719,17.0,Reaxys,ethanol,CCO,,,,,,
MOBNEVYPNLXFLO-UHFFFAOYSA-N,Cc1ccc2cc(C(=O)O)c(=O)oc2c1,-1.65680494,14.0,Reaxys,ethanol,CCO,,,,,,
MSHFCDBRRLKKAI-UHFFFAOYSA-N,COc1ccc(cc1)S(=O)(=O)NNC(=O)C(c1ccccc1)(c1ccccc1)O,-2.57399547,21.0,Reaxys,ethanol,CCO,,,,,,
MTCFGRXMJLQNBG-REOHCLBHSA-N,C([C@@H](C(=O)O)N)O,-3.745111985,24.9,Reaxys,ethanol,CCO,,,,,,
MTZSKSPYUYTKCT-RELWKKBWSA-N,CCOC(=O)C(c1ccccc1)SC1=NC(=Cc2ccccc2)C(=O)N1c1ccccc1,-2.24801056,20.0,Reaxys,ethanol,CCO,,,,,,
MUUZRJUPVBJRCW-UHFFFAOYSA-N,COc1ccc(cc1)N=Cc1ccc(cc1[N+](=O)[O-])[N+](=O)[O-],-2.2839971,22.0,Reaxys,ethanol,CCO,,,,,,
MWPLVEDNUUSJAV-UHFFFAOYSA-N,c1ccc2cc3ccccc3cc2c1,-2.103700991,25.0,Reaxys,ethanol,CCO,,,,,,
MXIUSHZGPUCUIF-UHFFFAOYSA-N,CCC(CC)CC1(CCO)C(=O)NC(=S)NC1=O,-0.649968662,25.0,Reaxys,ethanol,CCO,,,,,,
MYSWGUAQZAJSOK-UHFFFAOYSA-N,C1CC1n1cc(c(=O)c2cc(c(cc12)N1CCNCC1)F)C(=O)O,-3.757007927,24.99,Reaxys,ethanol,CCO,,,,,,
MZRSAJZDYIISJW-UHFFFAOYSA-N,c1ccc(cc1)C(=O)C=P(c1ccccc1)(c1ccccc1)c1ccccc1,-0.563834417,26.0,Reaxys,ethanol,CCO,,,,,,
NEKYKEAIHPEYBR-UHFFFAOYSA-N,CN(C)c1ccc(cc1)C(=NC(=S)Nc1ccccc1)c1ccc(cc1)N(C)C,-1.7493147,16.0,Reaxys,ethanol,CCO,,,,,,
NFDQYBUVHVRNNY-VATFKXGISA-N,C[C@H]1C[C@](C)(C[C@@H]([C@@H](CC2CC(=O)NC(=O)C2)O)C1=O)O,-0.297178144,25.0,Reaxys,ethanol,CCO,,,,,,
NGMMGKYJUWYIIG-UHFFFAOYSA-N,c1cc(cc(c1)O)C(=O)N,-0.387215989,20.0,Reaxys,ethanol,CCO,,,,,,
NHAZGGKOGUUUSH-UHFFFAOYSA-N,CC1(C)COP(=O)(C(C)(C)O)OC1,-0.223633396,25.19,Reaxys,ethanol,CCO,,,,,,
NIHNNTQXNPWCJQ-UHFFFAOYSA-N,c1ccc2c(c1)Cc1ccccc21,-0.862284454,25.19,Reaxys,ethanol,CCO,,,,,,
NKPYBHNKCKUNRN-UHFFFAOYSA-N,CCS(=O)(=O)C(C)(C(Cl)(Cl)Cl)S(=O)(=O)CC,-1.266915455,20.0,Reaxys,ethanol,CCO,,,,,,
NLARCUDOUOQRPB-WTKPLQERSA-N,CO/N=C(/c1csc(N)n1)\C(=O)O,-2.672337227,25.01,Reaxys,ethanol,CCO,,,,,,
NLVFBUXFDBBNBW-PBSUHMDJSA-N,C1[C@@H]([C@H]([C@@H]([C@H]([C@@H]1N)O[C@@H]1[C@@H]([C@H]([C@@H]([C@@H](CO)O1)O)N)O)O)O[C@@H]1[C@@H](C[C@@H]([C@@H](CN)O1)O)N)N,-1.707880973,24.99,Reaxys,ethanol,CCO,,,,,,
NMJRIEWNQQAOBY-UHFFFAOYSA-N,c1ccc(cc1)SCCS(=O)CCSc1ccccc1,-1.508551265,18.0,Reaxys,ethanol,CCO,,,,,,
NOCJXYPHIIZEHN-UHFFFAOYSA-N,CN1CCN(CC1)c1cc2c(cc1F)c(=O)c(cn2c1ccc(cc1)F)C(=O)O,-0.061450863,24.99,Reaxys,ethanol,CCO,,,,,,
NOIRTYMOEFHJRM-UHFFFAOYSA-N,COCN1C(=O)c2ccccc2C1=O,-1.48557607,25.0,Reaxys,ethanol,CCO,,,,,,
NPENBPVOAXERED-UHFFFAOYSA-N,c1ccc(cc1)C(=O)c1ccc(cc1)C(=O)c1ccccc1,-2.854806862,15.0,Reaxys,ethanol,CCO,,,,,,
NRDWUPPIGBHWAS-ZJUUUORDSA-N,CCC[C@H]1CC2=C(C[C@@H](CC)CC3=C1C(=O)OC3=O)C(=O)OC2=O,-2.044478349,20.0,Reaxys,ethanol,CCO,,,,,,
NRPKURNSADTHLJ-UHFFFAOYSA-N,CCCCCCCCOC(=O)c1cc(c(c(c1)O)O)O,0.192684881,20.0,Reaxys,ethanol,CCO,,,,,,
NWMPSWZJZGFWIK-UHFFFAOYSA-N,Cc1ccc2c(c1)C(=O)c1cc(ccc1C2=O)C(=O)O,-2.080894376,22.0,Reaxys,ethanol,CCO,,,,,,
NZXYYWMLCFKCPV-UHFFFAOYSA-N,COc1cc(c(c(c1OC)[N+](=O)[O-])[N+](=O)[O-])[N+](=O)[O-],-1.834355523,19.0,Reaxys,ethanol,CCO,,,,,,
OACSUWPJZKGHHK-UHFFFAOYSA-N,c1ccc(cc1)COP(=O)(OCc1ccccc1)OCc1ccccc1,0.167716211,25.0,Reaxys,ethanol,CCO,,,,,,
OBOCPCMQRKCAJW-UHFFFAOYSA-N,CCCC(C)CC1(CCO)C(=O)NC(=S)NC1=O,-0.841870015,25.0,Reaxys,ethanol,CCO,,,,,,
OBVKXTYZYVDEHF-UHFFFAOYSA-N,CCCC(=O)N(c1ccc(cc1)N(C)C)C(=O)Nc1ccc(cc1)N(C)C,-2.589989393,20.0,Reaxys,ethanol,CCO,,,,,,
OCJBOOLMMGQPQU-UHFFFAOYSA-N,c1cc(ccc1Cl)Cl,-0.20828776,25.0,Reaxys,ethanol,CCO,,,,,,
ODBYBGYTXPHFFZ-UHFFFAOYSA-N,CC(C)CCC1(CCO)C(=O)NC(=S)NC1=O,-0.277383831,25.0,Reaxys,ethanol,CCO,,,,,,
ODDAWJGQWOGBCX-UHFFFAOYSA-N,CN(C)CCn1c(nnn1)S,-2.977160211,24.99,Reaxys,ethanol,CCO,,,,,,
ODKSRCASCRILJO-UHFFFAOYSA-N,c1cc(ccc1C(=O)Nc1ccc(cc1N)N)N,-1.863368836,20.0,Reaxys,ethanol,CCO,,,,,,
OFEFIAFAVVRMOS-UHFFFAOYSA-N,c1ccc2c(c1)C(=O)OC2(Nc1cccc(c1)[N+](=O)[O-])Nc1cccc(c1)[N+](=O)[O-],-1.418572841,20.0,Reaxys,ethanol,CCO,,,,,,
OFMXGFHWLZPCFL-SVRPQWSVSA-N,C[C@H]1C(=O)CC[C@@H]2[C@]1(C)CC[C@H]1[C@@]2(C)CC[C@@]2(C)[C@@H]3CC(C)(C)CC[C@]3(C)CC[C@]12C,-2.926857727,21.0,Reaxys,ethanol,CCO,,,,,,
OHFMYIFFLOZSMF-UHFFFAOYSA-N,CC1(C)COP(=O)(NCCNP2(=O)OCC(C)(C)CO2)OC1,-2.132990367,24.99,Reaxys,ethanol,CCO,,,,,,
OIGNJSKKLXVSLS-VWUMJDOOSA-N,C[C@]12C=CC(=O)C=C1CC[C@H]1[C@@H]3CC[C@](C(=O)CO)([C@@]3(C)C[C@@H]([C@H]21)O)O,-1.171224459,25.04,Reaxys,ethanol,CCO,,,,,,
OKJIRPAQVSHGFK-UHFFFAOYSA-N,CC(=O)NCC(=O)O,-1.086940079,23.99,Reaxys,ethanol,CCO,,,,,,
OKQIEBVRUGLWOR-UHFFFAOYSA-N,CC(=O)Nc1cccc2ccccc12,-0.766231448,25.0,Reaxys,ethanol,CCO,,,,,,
OLVPZKMXZBVFAM-UHFFFAOYSA-N,CCCCCCCCCCC(C)(C)C(=O)NO,0.0,26.0,Reaxys,ethanol,CCO,,,,,,
ONGBXISBKSVVFS-UHFFFAOYSA-N,CC(C(=O)c1ccccc1)C(=O)c1ccccc1,-0.772286248,20.0,Reaxys,ethanol,CCO,,,,,,
ONIBWKKTOPOVIA-BYPYZUCNSA-N,C1C[C@@H](C(=O)O)NC1,-0.987862687,19.0,Reaxys,ethanol,CCO,,,,,,
ons1,c1[nH]cnn1	,0.503382063,,ONSchallenge,ethanol,CCO,,,,,,
ons10,c1cc2c(cc1CC(=O)O)OCO2	,-0.2596373,,ONSchallenge,ethanol,CCO,,,,,,
ons11,Cc1cc(C)cc(c1)C=O	,0.871572936,,ONSchallenge,ethanol,CCO,,,,,,
ons12,c1c(cc(cc1[N+](=O)[O-])[N+](=O)[O-])C(=O)O	,-0.12847523,,ONSchallenge,ethanol,CCO,,,,,,
ons13,c1cc(cnc1)N	,0.885256977,,ONSchallenge,ethanol,CCO,,,,,,
ons14,c1cc(N)nnc1	,-0.40053445,,ONSchallenge,ethanol,CCO,,,,,,
ons15,c1cc(c(cc1C(=O)O)[N+](=O)[O-])Cl	,-0.2596373,,ONSchallenge,ethanol,CCO,,,,,,
ons16,c1cc(ccc1C=O)Cl	,0.46810174,,ONSchallenge,ethanol,CCO,,,,,,
ons17,CN(C)c1ccc(C=CC=O)cc1	,-1.2411443,,ONSchallenge,ethanol,CCO,,,,,,
ons19,c1cc(ccc1C(=O)O)F	,-0.096774317,,ONSchallenge,ethanol,CCO,,,,,,
ons2,C1C2CC3CC1CC(C2)(C3)N	,-2.397940009,,ONSchallenge,ethanol,CCO,,,,,,
ons20,c1cc(ccc1C(=O)O)O	,0.29732272,,ONSchallenge,ethanol,CCO,,,,,,
ons21,c1cc(ccc1CC(=O)O)O	,0.36059341,,ONSchallenge,ethanol,CCO,,,,,,
ons22,Cc1ccc(cc1)C(=O)O	,-0.11208758,,ONSchallenge,ethanol,CCO,,,,,,
ons23,C(CCC(=O)O)CCN	,-2.522878745,,ONSchallenge,ethanol,CCO,,,,,,
ons24,c1cc(N)nnc1Cl	,-1.4569207,,ONSchallenge,ethanol,CCO,,,,,,
ons25,C(CCCC(=O)O)CCCBr	,0.609818629,,ONSchallenge,ethanol,CCO,,,,,,
ons26,c1ccc(c(c1)CC(=O)OCC(=O)O)Nc1c(cccc1Cl)Cl	,-1.4052794,,ONSchallenge,ethanol,CCO,,,,,,
ons27,CC(=O)Oc1ccccc1C(=O)O	,0.11693965,,ONSchallenge,ethanol,CCO,,,,,,
ons28,CC(C(=O)O)N	,-2.045757491,,ONSchallenge,ethanol,CCO,,,,,,
ons29,CCC1(CC)C(=O)NC(=O)NC1=O	,-0.30016229,,ONSchallenge,ethanol,CCO,,,,,,
ons3,CCCCCCCCCCCCCCCCCCN	,-0.086186148,,ONSchallenge,ethanol,CCO,,,,,,
ons31,c1cc2c(cc1C(=O)O)[nH]nn2	,-1.4751345,,ONSchallenge,ethanol,CCO,,,,,,
ons33,CC(C)(C)OC(=O)NCC(=O)O	,0.613841822,,ONSchallenge,ethanol,CCO,,,,,,
ons34,CCC(C)C1(CC)C(=O)NC(=O)NC1=O	,-0.40255713,,ONSchallenge,ethanol,CCO,,,,,,
ons36,c1ccc2c(c1)C(=O)c1cccc(c1C2=O)Cl	,-2.210257085,,ONSchallenge,ethanol,CCO,,,,,,
ons37,Cc1c(CSCCN/C(=N/C)/NC#N)nc[nH]1	,-0.8301577,,ONSchallenge,ethanol,CCO,,,,,,
ons38,c1ccc(cc1)C=CC(=O)O	,0.048740946,,ONSchallenge,ethanol,CCO,,,,,,
ons39,C/C=C/C(=O)O	,0.788875116,,ONSchallenge,ethanol,CCO,,,,,,
ons4,c1ccc2c(c1)c(C=O)c1ccccc1c2Cl	,0.24797326,,ONSchallenge,ethanol,CCO,,,,,,
ons40,c1ccc(cc1)/C=C/C(=O)/C=C/c1ccccc1	,-0.98716277,,ONSchallenge,ethanol,CCO,,,,,,
ons41,COC(=O)/C=C/C(=O)OC	,-1.0473521,,ONSchallenge,ethanol,CCO,,,,,,
ons42,c1ccc(cc1)S(=O)(=O)c1ccccc1	,0.060697839,,ONSchallenge,ethanol,CCO,,,,,,
ons43,c1ccc(cc1)C(c1ccccc1)C(=O)O	,-0.80000001,,ONSchallenge,ethanol,CCO,,,,,,
ons45,C[C@]12CCCCC1=CC[C@@H]1[C@@H]2CC[C@@]2(C)[C@H]1C[C@H](C2=O)F	,-1.993533958,,ONSchallenge,ethanol,CCO,,,,,,
ons46,c1cc(CNc2cc(c(cc2C(=O)O)S(=O)(=O)N)Cl)oc1	,-1.3840499,,ONSchallenge,ethanol,CCO,,,,,,
ons47,C(C(=O)O)N	,-3.408935393,,ONSchallenge,ethanol,CCO,,,,,,
ons48,C[C@H]1COc2c3c(cc(c2N2CCN(C)CC2)F)c(=O)c(cn13)C(=O)O	,-1.743533091,,ONSchallenge,ethanol,CCO,,,,,,
ons5,c1ccc(c(c1)C(=O)O)N=Nc1ccc(cc1)O	,-1.0779113,,ONSchallenge,ethanol,CCO,,,,,,
ons50,C(=CC(=O)O)C(=O)O	,0.532754379,,ONSchallenge,ethanol,CCO,,,,,,
ons55,c1cc(cc(c1)Nc1c(cccn1)C(=O)O)C(F)(F)F	,-0.97061622,,ONSchallenge,ethanol,CCO,,,,,,
ons56,Cc1ccc(cc1)S(=O)(=O)O	,-1.3372421,,ONSchallenge,ethanol,CCO,,,,,,
ons57,Cc1ccc(cc1)S(=O)(=O)C[N+]#[C-]	,-0.55518258,,ONSchallenge,ethanol,CCO,,,,,,
ons58,CCC1(c2ccccc2)C(=NC(=O)N=C1O)O	,0.698100546,,ONSchallenge,ethanol,CCO,,,,,,
ons59,c1ccc(cc1)CC(=O)O	,0.671172843,,ONSchallenge,ethanol,CCO,,,,,,
ons61,COc1cc(/C=C/C(=O)O)cc(c1O)OC	,-0.10237291,,ONSchallenge,ethanol,CCO,,,,,,
ons62,C(CCCC(=O)O)CCC(=O)O	,-0.34055558,,ONSchallenge,ethanol,CCO,,,,,,
ons63,c1ccc(cc1)C(c1ccccc1)(c1ccccc1)c1ccccc1	,-3.609999999,,ONSchallenge,ethanol,CCO,,,,,,
ons67,CCCCNC(=O)C(c1cc2ccccc2c2ccccc12)N(Cc1ccco1)C(=O)Cc1ccccc1	,-2.0,,ONSchallenge,ethanol,CCO,,,,,,
ons68,CC(C)(C)NC(=O)C(c1ccccc1)N(Cc1ccco1)C(=O)CNC(=O)OC(C)(C)C	,-1.759303401,,ONSchallenge,ethanol,CCO,,,,,,
ons69,CCCCCCCCCCC(=O)O	,0.595496222,,ONSchallenge,ethanol,CCO,,,,,,
ons7,C(CC(=O)O)C(=O)C(=O)O	,0.4756712,,ONSchallenge,ethanol,CCO,,,,,,
ons70,COc1cc(ccc1O)C=O	,0.39269695,,ONSchallenge,ethanol,CCO,,,,,,
ons71,COc1ccc(cc1OC)C=O	,0.739572344,,ONSchallenge,ethanol,CCO,,,,,,
ons8,CCC(c1ccccc1)C(=O)O	,0.792391689,,ONSchallenge,ethanol,CCO,,,,,,
ons9,Cc1ccc(cc1C)C=O	,0.877371346,,ONSchallenge,ethanol,CCO,,,,,,
ONZOGXRINCURBP-NXEZZACHSA-N,CC(C)COC(=O)[C@H]([C@@H](C(=O)OCC(C)C)O)O,0.244851692,25.0,Reaxys,ethanol,CCO,,,,,,
OODJJYRBUHRYQO-UHFFFAOYSA-N,CCC(CC)(CC(C)C)OC(=O)NC(=O)N,-1.23520234,16.0,Reaxys,ethanol,CCO,,,,,,
OPNZKSWUAFBELV-UHFFFAOYSA-N,c1ccc(cc1)COC(=O)NC(=O)N,-1.945804181,17.0,Reaxys,ethanol,CCO,,,,,,
OPOPTXYBSHDZOM-UHFFFAOYSA-N,CCCCC(CC)CC(CC)(CC)C(=O)NO,0.0,26.0,Reaxys,ethanol,CCO,,,,,,
OQQBRZJNECDPEX-QVIHXGFCSA-N,c1ccc(cc1)N(c1ccccc1)c1ccc(cc1)/N=N/c1ccc(cc1)S(=O)(=O)C(F)(F)F,-2.130189117,25.0,Reaxys,ethanol,CCO,,,,,,
ORCAYCBZJPDNPE-UHFFFAOYSA-N,CC1CCCCC1OC(=O)NC(=O)N,-1.43525916,18.0,Reaxys,ethanol,CCO,,,,,,