StdInChIKey,SMILES,LogS,T,Source,Solvent,Solvent_SMILES,Smilesa,REF1,REF2,REF3,REF4,REF5
YGSDEFSMJLZEOE-UHFFFAOYSA-N,OC(=O)c1ccccc1O,-1.307759578,25.0,Reaxys,benzene,c1ccccc1,,,,,,
YGTUPRIZNBMOFV-UHFFFAOYSA-N,OC(=O)c1ccccc1C(=O)c2ccc(O)cc2,-3.301444352,21.0,Reaxys,benzene,c1ccccc1,,,,,,
YJHZQWSSAFUAIG-UHFFFAOYSA-N,Cc1cc(ccc1O)N=Nc2ccccc2,-0.497967732,30.0,Reaxys,benzene,c1ccccc1,,,,,,
YLQWCDOCJODRMT-UHFFFAOYSA-N,O=C1c2ccccc2c3ccccc13,0.519243772,23.0,Reaxys,benzene,c1ccccc1,,,,,,
YMTUIACUSNJPBV-UHFFFAOYSA-N,CCOc1ccc2nc3cc(ccc3c(Cl)c2c1)[N+]([O-])=O,-1.70288556,20.0,Reaxys,benzene,c1ccccc1,,,,,,
YODZTKMDCQEPHD-UHFFFAOYSA-N,OCCSCCO,-1.115140672,25.0,Reaxys,benzene,c1ccccc1,,,,,,
YRNWIFYIFSBPAU-UHFFFAOYSA-N,CN(C)c1ccc(cc1)c2ccc(cc2)N(C)C,-1.079810517,18.0,Reaxys,benzene,c1ccccc1,,,,,,
YSEMBYWAAKOCKW-UHFFFAOYSA-N,Oc1ccc(cc1)C=C2CCC(=Cc3ccc(O)cc3)C2=O,-3.465879329,20.0,Reaxys,benzene,c1ccccc1,,,,,,
YSFZWUJOBANROZ-UHFFFAOYSA-N,CCCCCCCC(C(O)=O)C(O)=O,-2.401017236,25.0,Reaxys,benzene,c1ccccc1,,,,,,
YTRMTPPVNRALON-UHFFFAOYSA-N,OC(=O)c1cc(nc2ccccc12)c3ccccc3,-3.030918291,21.0,Reaxys,benzene,c1ccccc1,,,,,,
YUWFEBAXEOLKSG-UHFFFAOYSA-N,Cc1c(C)c(C)c(C)c(C)c1C,-0.387229525,20.0,Reaxys,benzene,c1ccccc1,,,,,,
YVGGHNCTFXOJCH-UHFFFAOYSA-N,Clc1ccc(cc1)C(c2ccc(Cl)cc2)C(Cl)(Cl)Cl,0.322319043,30.0,Reaxys,benzene,c1ccccc1,,,,,,
YVUQSNJEYSNKRX-UHFFFAOYSA-N,Fc1ccc(cc1)C(CCCN2CCC(CC2)N3C(=O)Nc4ccccc34)c5ccc(F)cc5,-2.141130509,25.0,Reaxys,benzene,c1ccccc1,,,,,,
YYGJRRYSYLLCQH-UHFFFAOYSA-N,Cc1c(cc(c(O)c1[N+]([O-])=O)[N+]([O-])=O)[N+]([O-])=O,-0.313006034,17.0,Reaxys,benzene,c1ccccc1,,,,,,
YZOMFHYSOYQBFP-UHFFFAOYSA-N,OC(=O)c1c2ccccc2c(c3ccccc3)c4c(c5ccccc5)c6ccccc6c(c7ccccc7)c14,-3.523396116,20.0,Reaxys,benzene,c1ccccc1,,,,,,
ZBJSGOMTEOPTBH-UHFFFAOYSA-N,Cl[S](=O)(=O)c1ccc2c(c1)cc(cc2[S](Cl)(=O)=O)[S](Cl)(=O)=O,-0.654767962,20.0,Reaxys,benzene,c1ccccc1,,,,,,
ZCFSWYZFGJAUKK-UHFFFAOYSA-N,Cc1ccc(C)c(c1[N+]([O-])=O)[N+]([O-])=O,-0.116525836,15.0,Reaxys,benzene,c1ccccc1,,,,,,
ZCJLOOJRNPHKAV-ONEGZZNKSA-N,OC(=O)/C=C/c1occc1,-1.083361151,19.0,Reaxys,benzene,c1ccccc1,,,,,,
ZCJLOOJRNPHKAV-UHFFFAOYSA-N,OC(=O)C=Cc1occc1,-1.005719859,24.84,Reaxys,benzene,c1ccccc1,,,,,,
ZDASUJMDVPTNTF-UHFFFAOYSA-N,Oc1c(Br)cc(Br)c2cccnc12,-0.879315266,,Reaxys,benzene,c1ccccc1,,,,,,
ZDZHCHYQNPQSGG-UHFFFAOYSA-N,c1ccc2c(c1)cccc2c3cccc4ccccc34,-0.568637943,20.0,Reaxys,benzene,c1ccccc1,,,,,,
ZENGMMQJMCPHTK-UHFFFAOYSA-N,C(C=CC=Cc1ccccc1)=CC=Cc2ccccc2,-2.333049073,19.0,Reaxys,benzene,c1ccccc1,,,,,,
ZIYVHBGGAOATLY-UHFFFAOYSA-N,CC(C(O)=O)C(O)=O,-3.652584084,25.0,Reaxys,benzene,c1ccccc1,,,,,,
ZKPLTLWJBLZUSM-UHFFFAOYSA-N,Cc1cc(c(C)c(c1[N+]([O-])=O)[N+]([O-])=O)[N+]([O-])=O,-0.984365267,15.0,Reaxys,benzene,c1ccccc1,,,,,,
ZPMFMUZPHAGSQR-PQJIZZRHSA-N,C1=C(C(=CC2=C1OCCC2(C(=O)C3=CC=C4C(=C3O[H])C[C@@H](O4)C(C)C)[H])OC)OC,-0.407255773,25.0,Reaxys,benzene,c1ccccc1,,,,,,
ZPTVNYMJQHSSEA-UHFFFAOYSA-N,Cc1ccc(cc1)[N+]([O-])=O,0.91133309,15.0,Reaxys,benzene,c1ccccc1,,,,,,
ZPUCINDJVBIVPJ-LJISPDSOSA-N,COC(=O)[C@H]1[C@H](C[C@@H]2CC[C@H]1N2C)OC(=O)c3ccccc3,0.460548654,,Reaxys,benzene,c1ccccc1,,,,,,
ZQAGMWKKYVHQKG-UHFFFAOYSA-N,CCCCc1c(O)cc(C)cc1O,-1.026130102,24.9,Reaxys,benzene,c1ccccc1,,,,,,
ZQBAKBUEJOMQEX-UHFFFAOYSA-N,Oc1ccccc1C(=O)Oc2ccccc2,0.558928709,30.0,Reaxys,benzene,c1ccccc1,,,,,,
ZRIHAIZYIMGOAB-UHFFFAOYSA-N,CCC(C)C1(CC)C(=O)NC(=O)NC1=O,-2.162492797,20.0,Reaxys,benzene,c1ccccc1,,,,,,
ZRRFZADKYTXPJU-WPRPVWTQSA-N,COC(C)C(NC(=O)c1ccccc1)C(O)=O,-0.445796448,25.0,Reaxys,benzene,c1ccccc1,,,,,,
ZTMADXFOCUXMJE-UHFFFAOYSA-N,Cc1c(O)cccc1O,-1.144457574,24.9,Reaxys,benzene,c1ccccc1,,,,,,
ZUOUZKKEUPVFJK-UHFFFAOYSA-N,c1ccc(cc1)c2ccccc2,0.732112358,25.0,Reaxys,benzene,c1ccccc1,,,,,,
ZUTCJXFCHHDFJS-UHFFFAOYSA-N,[O-][N+](=O)c1cccc2c1cccc2[N+]([O-])=O,-1.815363959,16.0,Reaxys,benzene,c1ccccc1,,,,,,
ZVNLUXZZYVQUTE-UHFFFAOYSA-N,OC[P]1(=O)Oc2ccccc2c3ccccc13,-2.164161321,27.53,Reaxys,benzene,c1ccccc1,,,,,,
ZVNYJIZDIRKMBF-UHFFFAOYSA-N,COc1ccc(cc1OC)C(=O)N2CCN(CC2)c3ccc4NC(=O)CCc4c3,-3.789551538,25.0,Reaxys,benzene,c1ccccc1,,,,,,
ZWFHVYLMPFPMKA-UHFFFAOYSA-N,Cc1ccc2[nH]c(Nc3ccccc3)nc2c1,-2.327158636,15.0,Reaxys,benzene,c1ccccc1,,,,,,
ZWLPBLYKEWSWPD-UHFFFAOYSA-N,Cc1ccccc1C(O)=O,-0.138627526,21.1,Reaxys,benzene,c1ccccc1,,,,,,
ZXVONLUNISGICL-UHFFFAOYSA-N,Cc1cc(cc(c1O)[N+]([O-])=O)[N+]([O-])=O,0.215501725,15.0,Reaxys,benzene,c1ccccc1,,,,,,
ZYLCQMSHBJVMBX-UHFFFAOYSA-N,CN(C)c1ccc(cc1)C(=Nc2ccccc2N)c3ccc(cc3)N(C)C,-1.139498852,17.0,Reaxys,benzene,c1ccccc1,,,,,,