StdInChIKey,SMILES,LogS,T,Source,Solvent,Solvent_SMILES,Smilesa,REF1,REF2,REF3,REF4,REF5
UBIJTWDKTYCPMQ-UHFFFAOYSA-N,ClP1(Cl)=NP(Cl)(Cl)=NP(Cl)(Cl)=N1,-0.423567349,20.0,Reaxys,acetone,CC(=O)C,,,,,,
UCAHGXFXBRSTPX-UHFFFAOYSA-N,O=N(=O)C1=CC=C(OC2=C(C=C(C=C2N(=O)=O)N(=O)=O)N(=O)=O)C(=C1)N(=O)=O,-0.401133386,23.0,Reaxys,acetone,CC(=O)C,,,,,,
UCNVFOCBFJOQAL-UHFFFAOYSA-N,Cl\C(Cl)=C(/C1=CC=C(Cl)C=C1)C1=CC=C(Cl)C=C1,-0.011106395,,Reaxys,acetone,CC(=O)C,,,,,,
UERPUZBSSSAZJE-UHFFFAOYSA-N,ClC1=C2C(=O)OC(=O)C2=CC=C1,0.469946158,24.99,Reaxys,acetone,CC(=O)C,,,,,,
UFBJCMHMOXMLKC-UHFFFAOYSA-N,OC1=CC=C(C=C1N(=O)=O)N(=O)=O,0.184891445,15.0,Reaxys,acetone,CC(=O)C,,,,,,
UFWIBTONFRDIAS-UHFFFAOYSA-N,C1=CC2=CC=CC=C2C=C1,0.470144966,24.95,Reaxys,acetone,CC(=O)C,,,,,,
UGDXBXSNMVUDQD-FOCLMDBBSA-N,CCCCCCCCCC\C=C\C(=O)N(C(=O)NC1=CC=C(C=C1)N(C)C)C1=CC=C(C=C1)N(C)C,-3.841548882,20.0,Reaxys,acetone,CC(=O)C,,,,,,
UHWJMXASZSKFEO-UHFFFAOYSA-N,O=N(=O)C1=CC(=C(NC2=CC=C(C=C2N(=O)=O)N(=O)=O)C=C1)N(=O)=O,-1.11674556,15.0,Reaxys,acetone,CC(=O)C,,,,,,
UIOBKSBTVLAPDR-DHDCSXOGSA-N,CCOC(=O)C1=C(C)NC(\C=C2/N=C(C)C(C(=O)OCC)=C/2C)=C1C,-2.235825584,25.0,Reaxys,acetone,CC(=O)C,,,,,,
UJKWVVLRVCSFBB-HNNXBMFYSA-N,[H][C@](O)(C(=O)NCCC(=O)NCCSC(=O)C1=CC=CC=C1)C(C)(C)CO,-0.883639862,20.0,Reaxys,acetone,CC(=O)C,,,,,,
UJOBWOGCFQCDNV-UHFFFAOYSA-N,N1C2=C(C=CC=C2)C2=C1C=CC=C2,-0.341620856,30.0,Reaxys,acetone,CC(=O)C,,,,,,
ULQISTXYYBZJSJ-QGZVFWFLSA-N,[H][C@@](O)(CCCCCC)CCCCCCCCCCC(O)=O,-0.778848457,,Reaxys,acetone,CC(=O)C,,,,,,
UMVOQQDNEYOJOK-UHFFFAOYSA-N,CC1=CC(=CC(C)=C1)C(O)=O,-0.194784817,20.0,Reaxys,acetone,CC(=O)C,,,,,,
UNTITLLXXOKDTB-UHFFFAOYSA-N,C1COCCOC2=C(OCCOCCOCCOC3=C(OCCO1)C=CC=C3)C=CC=C2,-1.498936526,25.0,Reaxys,acetone,CC(=O)C,,,,,,
UNXHWFMMPAWVPI-ZXZARUISSA-N,[H][C@](O)(CO)[C@]([H])(O)CO,-2.452585735,23.4,Reaxys,acetone,CC(=O)C,,,,,,
UTQSUDKKBZEXHH-UHFFFAOYSA-N,NC1=C(NC2=C(Cl)C=CC=C2)C=CC(Cl)=C1,-0.136173606,20.0,Reaxys,acetone,CC(=O)C,,,,,,
UUQHKWMIDYRWHH-UHFFFAOYSA-N,COC(=O)C1=C(O)C(C)=C(O)C=C1C,0.35053991,19.99,Reaxys,acetone,CC(=O)C,,,,,,
UVOTVQIUSZDLAM-GGLFOPPFSA-N,[H][C@@]12CC=C(C(C)=O)[C@@]1(C)C[C@H](O)[C@@]1([H])[C@@]2([H])CCC2=CC(=O)C=C[C@]12C,0.414898592,24.99,Reaxys,acetone,CC(=O)C,,,,,,
UVSMNLNDYGZFPF-UHFFFAOYSA-N,NC1=CC=CC2=C1C(=O)N(C1CCC(=O)NC1=O)C2=O,-2.137703915,20.0,Reaxys,acetone,CC(=O)C,,,,,,
UYIFTLBWAOGQBI-BZDYCCQFSA-N,[H][C@@]12CC[C@H](O)[C@@]1(C)CC[C@]1([H])C3=CC=C(OC(=O)C4=CC=CC=C4)C=C3CC[C@@]21[H],-0.274730371,20.0,Reaxys,acetone,CC(=O)C,,,,,,
VFRHZMZLRWTDHX-UHFFFAOYSA-N,CCCCCCCCCC(O)CC(=O)N(C(=O)NC1=CC=C(C=C1)N(C)C)C1=CC=C(C=C1)N(C)C,-1.170790508,20.0,Reaxys,acetone,CC(=O)C,,,,,,
VHQGURIJMFPBKS-UHFFFAOYSA-N,O=C1C2=CC(=CC(=C2C2=C1C=C(C=C2)N(=O)=O)N(=O)=O)N(=O)=O,-0.88605527,22.0,Reaxys,acetone,CC(=O)C,,,,,,
VHUNCYDAXJGCLO-AHMNSWSSSA-N,COC(=O)C1=C(O[C@@H]2O[C@H](CO[C@@H]3OC[C@@H](O)[C@H](O)[C@H]3O)[C@@H](O)[C@H](O)[C@H]2O)C=CC=C1,-2.567341591,19.0,Reaxys,acetone,CC(=O)C,,,,,,
VKONPUDBRVKQLM-IZLXSQMJSA-N,O[C@H]1CC[C@H](O)CC1,-0.784023236,16.0,Reaxys,acetone,CC(=O)C,,,,,,
VKYKSIONXSXAKP-UHFFFAOYSA-N,C1N2CN3CN1CN(C2)C3,-0.950811187,20.0,Reaxys,acetone,CC(=O)C,,,,,,
VLIUIBXPEDFJRF-UHFFFAOYSA-N,ONC(=O)CCCCCCNC(=O)C1=CN=C(N=C1)N(C1=CC=CC=C1)C1=CC=CC=C1Cl,-1.628811407,15.0,Reaxys,acetone,CC(=O)C,,,,,,
VLPXGVNKPRHLGC-UHFFFAOYSA-N,CC(=O)CC(=O)N(C1=CC=CC=C1)C1=CC=CC=C1,0.259120927,20.0,Reaxys,acetone,CC(=O)C,,,,,,
VMFZFBNQMGFEJG-UHFFFAOYSA-N,CN(C)C1=CC=C(NC(=O)N(C(C)=O)C2=CC=C(C=C2)N(C)C)C=C1,-1.673363962,20.0,Reaxys,acetone,CC(=O)C,,,,,,
VOIZNVUXCQLQHS-UHFFFAOYSA-N,OC(=O)C1=CC=CC(Br)=C1,0.017033838,20.0,Reaxys,acetone,CC(=O)C,,,,,,
VOXZDWNPVJITMN-ZBRFXRBCSA-N,[H][C@@]12CC[C@H](O)[C@@]1(C)CC[C@]1([H])C3=CC=C(O)C=C3CC[C@@]21[H],-0.680578154,30.0,Reaxys,acetone,CC(=O)C,,,,,,
VPVXHAANQNHFSF-UHFFFAOYSA-N,O=C1COCCO1,0.964031913,15.3,Reaxys,acetone,CC(=O)C,,,,,,
VXTGHWHFYNYFFV-UHFFFAOYSA-N,CCCS(=O)C1=CC=C2NC(NC(=O)OC)=NC2=C1,-3.847163773,25.0,Reaxys,acetone,CC(=O)C,,,,,,
VZCYOOQTPOCHFL-OWOJBTEDSA-N,OC(=O)\C=C\C(O)=O,-1.103563434,23.84,Reaxys,acetone,CC(=O)C,,,,,,
WDENQIQQYWYTPO-IBGZPJMESA-N,CC#CC(=O)N1CCC[C@H]1C1=NC(=C2N1C=CN=C2N)C1=CC=C(C=C1)C(=O)NC1=NC=CC=C1,-2.190811492,25.0,Reaxys,acetone,CC(=O)C,,,,,,
WDFKMLRRRCGAKS-UHFFFAOYSA-N,OC1=C2N=CC=CC2=C(Cl)C=C1Cl,-1.330517261,25.0,Reaxys,acetone,CC(=O)C,,,,,,
WJFKNYWRSNBZNX-UHFFFAOYSA-N,N1C2=CC=CC=C2SC2=C1C=CC=C2,-0.103555345,,Reaxys,acetone,CC(=O)C,,,,,,
WJHSRFQBVYHKKL-CMWLGVBASA-N,OC[C@H]1O[C@@H](OC2=CC3=C(C(=O)C(=CO3)C3=CC(O)=C(O)C=C3)C(O)=C2)[C@H](O)[C@@H](O)[C@@H]1O,-2.987228403,18.0,Reaxys,acetone,CC(=O)C,,,,,,
WJHXJYUKJVLCRB-UHFFFAOYSA-N,ClC1=C2C(=O)C(Cl)(Cl)C(=O)C2=C(Cl)C(Cl)=C1Cl,-0.558543656,25.0,Reaxys,acetone,CC(=O)C,,,,,,
WKDNYTOXBCRNPV-UHFFFAOYSA-N,O=C1OC(=O)C2=C1C=CC(=C2)C1=CC2=C(C=C1)C(=O)OC2=O,-2.573802534,25.0,Reaxys,acetone,CC(=O)C,,,,,,
WLJVXDMOQOGPHL-UHFFFAOYSA-N,OC(=O)CC1=CC=CC=C1,0.996380458,20.0,Reaxys,acetone,CC(=O)C,,,,,,
WNLRTRBMVRJNCN-UHFFFAOYSA-N,OC(=O)CCCCC(O)=O,-0.642191393,24.99,Reaxys,acetone,CC(=O)C,,,,,,
WNSIHLBGVWBZIH-UHFFFAOYSA-N,CC(=O)OC(COC(=O)C1=CC=C(C=C1)N(=O)=O)COC(=O)C1=CC=C(C=C1)N(=O)=O,-1.371742918,21.0,Reaxys,acetone,CC(=O)C,,,,,,
WOUBWJAJSXAOIV-UHFFFAOYSA-N,NS(=O)(=O)C1=CC=C(C=C1)S(N)(=O)=O,-0.771354104,25.0,Reaxys,acetone,CC(=O)C,,,,,,
WOZSCQDILHKSGG-UHFFFAOYSA-N,CC(C)(C)C(=O)OCOP(=O)(COCCN1C=NC2=C1N=CN=C2N)OCOC(=O)C(C)(C)C,-0.048751483,24.99,Reaxys,acetone,CC(=O)C,,,,,,
WPYMKLBDIGXBTP-UHFFFAOYSA-N,OC(=O)C1=CC=CC=C1,0.513935905,25.0,Reaxys,acetone,CC(=O)C,,,,,,
WUBBRNOQWQTFEX-UHFFFAOYSA-N,NC1=CC=C(C(O)=O)C(O)=C1,-0.059761557,23.5,Reaxys,acetone,CC(=O)C,,,,,,
WUPFRVISYZBSJJ-UHFFFAOYSA-N,CCCCCCCC(=O)N(C(=O)NC1=CC=C(C=C1)N(C)C)C1=CC=C(C=C1)N(C)C,-1.661214006,20.0,Reaxys,acetone,CC(=O)C,,,,,,
WURBFLDFSFBTLW-UHFFFAOYSA-N,O=C(C(=O)C1=CC=CC=C1)C1=CC=CC=C1,0.334813507,25.0,Reaxys,acetone,CC(=O)C,,,,,,
WUWTZZYHTFBSKC-UHFFFAOYSA-N,O=C(NC1=CC=CC=C1)C1=CN=C(C=N1)C(=O)NC1=CC=CC=C1,-3.502884391,,Reaxys,acetone,CC(=O)C,,,,,,
WXNXCEHXYPACJF-SSDOTTSWSA-N,[H][C@](CC(C)C)(NC(C)=O)C(O)=O,-1.000531873,25.0,Reaxys,acetone,CC(=O)C,,,,,,
WXTMDXOMEHJXQO-UHFFFAOYSA-N,OC(=O)C1=CC(O)=CC=C1O,-0.187864636,25.0,Reaxys,acetone,CC(=O)C,,,,,,
WXUZAHCNPWONDH-DYTRJAOYSA-N,CNC(=O)C(=N\OC)\C1=C(COC2=CC(C)=CC=C2C)C=CC=C1,-0.678052926,20.0,Reaxys,acetone,CC(=O)C,,,,,,
WYEHFWKAOXOVJD-UHFFFAOYSA-N,FC1=CC=C(NC(=O)C2=C(OC3=CC(=CC=C3)C(F)(F)F)N=CC=C2)C(F)=C1,-0.595827879,20.0,Reaxys,acetone,CC(=O)C,,,,,,
WYJKJOYWHVMPFL-UHFFFAOYSA-N,CC(OC1=CC=CC2=CC=CC=C12)C(N)=O,-1.08782952,25.0,Reaxys,acetone,CC(=O)C,,,,,,
WZSCKTIRIGZORS-VOTSOKGWSA-N,C\C=C\CCCCCCCC(=O)N(C(=O)NC1=CC=C(C=C1)N(C)C)C1=CC=C(C=C1)N(C)C,-2.008829226,20.0,Reaxys,acetone,CC(=O)C,,,,,,
XCDXSSFOJZZGQC-UHFFFAOYSA-N,ClCCN(CCCl)C1=CC2=CC=CC=C2C=C1,0.495843183,15.0,Reaxys,acetone,CC(=O)C,,,,,,
XCXDKIUJEGJDJL-YIZNBMETSA-N,[H][C@@](C)(CCCC(C)C)[C@@]1([H])CC[C@@]2([H])[C@]3([H])CC=C4C[C@H](CC[C@]4(C)[C@@]3([H])CC[C@]12C)OC(=O)C(O)=O,-0.855331724,20.0,Reaxys,acetone,CC(=O)C,,,,,,
XEZVDURJDFGERA-UHFFFAOYSA-N,CCCCCCCCCCCCCCCCCCCCCCC(O)=O,-1.549759551,15.0,Reaxys,acetone,CC(=O)C,,,,,,
XGDRLCRGKUCBQL-UHFFFAOYSA-N,N#CC1=C(N=CN1)C#N,0.0,,Reaxys,acetone,CC(=O)C,,,,,,
XGNHEICZCRPVHP-UHFFFAOYSA-N,O1C2=C(OP11=NP3(OC4=C(O3)C=CC=C4)=NP3(OC4=C(O3)C=CC=C4)=N1)C=CC=C2,-2.363869395,25.19,Reaxys,acetone,CC(=O)C,,,,,,
XIUUSFJTJXFNGH-UHFFFAOYSA-N,CN1C2C(N(C)C1=O)N(C)C(=O)N2C,-0.926617581,19.0,Reaxys,acetone,CC(=O)C,,,,,,
XJYDCCKHUXCATF-UHFFFAOYSA-N,NC1=C(C(=C(C(=C1N(=O)=O)N(=O)=O)N(=O)=O)N(=O)=O)N(=O)=O,-0.125835238,20.0,Reaxys,acetone,CC(=O)C,,,,,,
XKEFYDZQGKAQCN-UHFFFAOYSA-N,ClC1=CC(Cl)=CC(Cl)=C1,0.19477696,24.99,Reaxys,acetone,CC(=O)C,,,,,,
XLWKIQKOAXZPLJ-UHFFFAOYSA-N,CN(C)C1=CC=C(NC(=O)N(C(=O)\C=C(/C)C)C2=CC=C(C=C2)N(C)C)C=C1,-1.361191135,20.0,Reaxys,acetone,CC(=O)C,,,,,,
XNGJUGUTYMLWIM-UHFFFAOYSA-N,CC1(C)C2CCC1(CBr)C(=O)C2Br,-0.273918375,,Reaxys,acetone,CC(=O)C,,,,,,
XPOFTPYDSZJRKX-VOVZHTNUSA-N,[H][C@@]12C[C@@]3([H])[C@]4([H])CCC5=CC(=O)CC[C@]5(C)[C@@]4([H])[C@H](O)C[C@]3(C)[C@@]1(O2)C(C)=O,-1.657652075,25.2,Reaxys,acetone,CC(=O)C,,,,,,
XQXPVVBIMDBYFF-UHFFFAOYSA-N,OC(=O)CC1=CC=C(O)C=C1,0.584462402,25.0,Reaxys,acetone,CC(=O)C,,,,,,
XRAPDLHFGPTBQZ-UHFFFAOYSA-N,O=C(NC1=CC=CC2=CC=CC=C12)N(C1=CC=CC=C1)C1=CC=CC=C1,-1.610363812,20.0,Reaxys,acetone,CC(=O)C,,,,,,
XRHGYUZYPHTUJZ-UHFFFAOYSA-N,OC(=O)C1=CC=C(Cl)C=C1,-0.800254097,20.0,Reaxys,acetone,CC(=O)C,,,,,,
XRXMNWGCKISMOH-UHFFFAOYSA-N,OC(=O)C1=CC=CC=C1Br,0.158363452,20.0,Reaxys,acetone,CC(=O)C,,,,,,
XSTCQMIXQXXYCY-UHFFFAOYSA-N,CC(C)(O)P1(=O)OCC2(CO1)COP(=O)(OC2)C(C)(C)O,-1.987351504,25.28,Reaxys,acetone,CC(=O)C,,,,,,
XTFIVUDBNACUBN-UHFFFAOYSA-N,O=N(=O)N1CN(CN(C1)N(=O)=O)N(=O)=O,-0.583749167,20.0,Reaxys,acetone,CC(=O)C,,,,,,
XUGISPSHIFXEHZ-VEVYEIKRSA-N,[H][C@@](C)(CCCC(C)C)[C@@]1([H])CC[C@@]2([H])[C@]3([H])CC=C4C[C@H](CC[C@]4(C)[C@@]3([H])CC[C@]12C)OC(C)=O,-1.234212462,20.0,Reaxys,acetone,CC(=O)C,,,,,,
XUYPXLNMDZIRQH-LURJTMIESA-N,[H][C@@](CCSC)(NC(C)=O)C(O)=O,0.188218301,25.0,Reaxys,acetone,CC(=O)C,,,,,,
XXVXIPPJGSLKSX-UHFFFAOYSA-N,OCCCCOC(=O)NCCCCCCNC(=O)OCCCCO,-1.843158001,20.0,Reaxys,acetone,CC(=O)C,,,,,,
YASYVMFAVPKPKE-UHFFFAOYSA-N,COP(=O)(NC(C)=O)SC,-0.037053105,26.29,Reaxys,acetone,CC(=O)C,,,,,,
YDCFNPFXXJRYCZ-UHFFFAOYSA-N,O=C(N=N#N)C1=C(C=C(C=C1N(=O)=O)N(=O)=O)N(=O)=O,-0.953518081,20.0,Reaxys,acetone,CC(=O)C,,,,,,
YEYCQJVCAMFWCO-PXBBAZSNSA-N,[H][C@@](C)(CCCC(C)C)[C@@]1([H])CC[C@@]2([H])[C@]3([H])CC=C4C[C@H](CC[C@]4(C)[C@@]3([H])CC[C@]12C)OC=O,-0.825313022,20.0,Reaxys,acetone,CC(=O)C,,,,,,
YGSDEFSMJLZEOE-UHFFFAOYSA-N,OC(=O)C1=CC=CC=C1O,0.38412846,25.0,Reaxys,acetone,CC(=O)C,,,,,,
YIICVSCAKJMMDJ-UHFFFAOYSA-N,OC1CCN2CC3=CC=CC=C3N=C12,-1.973656539,25.0,Reaxys,acetone,CC(=O)C,,,,,,
YJGVMLPVUAXIQN-XVVDYKMHSA-N,[H][C@]12COC(=O)[C@]1([H])[C@H](C1=CC(OC)=C(OC)C(OC)=C1)C1=C(C=C3OCOC3=C1)[C@@H]2O,-0.983384521,20.04,Reaxys,acetone,CC(=O)C,,,,,,
YKZYNOWDVPDSMO-QMMMGPOBSA-N,O[C@@H](CCC1=CCCC1=O)CC(O)=O,-0.960685547,20.0,Reaxys,acetone,CC(=O)C,,,,,,
YOSHYTLCDANDAN-UHFFFAOYSA-N,CCCCC1=NC2(CCCC2)C(=O)N1CC1=CC=C(C=C1)C1=CC=CC=C1C1=NN=NN1,-3.038076782,25.09,Reaxys,acetone,CC(=O)C,,,,,,
YQJPLPIXXNODAV-UHFFFAOYSA-N,CCCCCCCCCCCCC(=O)N(C(=O)NC1=CC=C(C=C1)N(C)C)C1=CC=C(C=C1)N(C)C,-1.952421268,18.0,Reaxys,acetone,CC(=O)C,,,,,,
YQUVCSBJEUQKSH-UHFFFAOYSA-N,OC(=O)C1=CC(O)=C(O)C=C1,-0.187864636,25.0,Reaxys,acetone,CC(=O)C,,,,,,
YRPYUECFYIYBGG-UHFFFAOYSA-N,NC1=C(NC2=CC=CC=C2)C=C(Cl)C=C1,-0.10937206,20.0,Reaxys,acetone,CC(=O)C,,,,,,
YTUICHKHZZLYFO-UHFFFAOYSA-N,OCC1OC(OC2COC(OC12)C1=CC=CC=C1)C1=CC=CC=C1,-1.710176886,17.0,Reaxys,acetone,CC(=O)C,,,,,,
YVAUPMVSVRWYIH-UHFFFAOYSA-N,CC(O)(C1=CC=CC=C1)P1(=O)OCC(C)(C)CO1,-1.377944782,25.19,Reaxys,acetone,CC(=O)C,,,,,,
YVJCXMCIFPUNDO-UHFFFAOYSA-N,CC1=C(C(C)=C(C(C)=C1N(=O)=O)N(=O)=O)N(=O)=O,-1.503768559,15.0,Reaxys,acetone,CC(=O)C,,,,,,
YWTYJOPNNQFBPC-UHFFFAOYSA-N,ClC1=NC=C(CN2CCN=C2NN(=O)=O)C=C1,-0.718857066,26.89,Reaxys,acetone,CC(=O)C,,,,,,
YWYQTGBBEZQBGO-BERLURQNSA-N,[H][C@@](C)(O)[C@@]1([H])CC[C@@]2([H])[C@]3([H])CC[C@]4([H])C[C@H](O)CC[C@]4(C)[C@@]3([H])CC[C@]12C,-2.872381259,15.0,Reaxys,acetone,CC(=O)C,,,,,,
YYGJRRYSYLLCQH-UHFFFAOYSA-N,CC1=C(C(O)=C(C=C1N(=O)=O)N(=O)=O)N(=O)=O,0.485879894,17.0,Reaxys,acetone,CC(=O)C,,,,,,
YZYKMYZMAYASBX-OKUDZNIVSA-N,[H][C@@]1(COC(O1)C1=CC=CC=C1)[C@]1([H])O[C@@H](O[C@]2([H])CO[C@@H](O[C@]12[H])C1=CC=CC=C1)C1=CC=CC=C1,-1.977723605,17.0,Reaxys,acetone,CC(=O)C,,,,,,
ZABCGYUGVOPKIL-UHFFFAOYSA-N,OC1=C2C=CC=CC2=C(O)C(=C1)P1(=O)OC2=C(C=CC=C2CC2=CC=CC=C2)C2=C1C=CC=C2,-1.047799986,20.0,Reaxys,acetone,CC(=O)C,,,,,,
ZBJWWKFMHOAPNS-UHFFFAOYSA-N,OC1=C2N=CC=CC2=C(C=C1I)S(O)(=O)=O,-3.642366818,25.0,Reaxys,acetone,CC(=O)C,,,,,,
ZCFSWYZFGJAUKK-UHFFFAOYSA-N,CC1=CC=C(C)C(=C1N(=O)=O)N(=O)=O,0.18450416,15.0,Reaxys,acetone,CC(=O)C,,,,,,
ZCJLOOJRNPHKAV-UHFFFAOYSA-N,OC(=O)C=CC1=CC=CO1,0.105205217,24.84,Reaxys,acetone,CC(=O)C,,,,,,
ZDASUJMDVPTNTF-UHFFFAOYSA-N,OC1=C2N=CC=CC2=C(Br)C=C1Br,-1.812523609,20.0,Reaxys,acetone,CC(=O)C,,,,,,
ZDZHCHYQNPQSGG-UHFFFAOYSA-N,C1=CC=C2C(C=CC=C2C2=CC=CC3=CC=CC=C23)=C1,-1.193822267,20.0,Reaxys,acetone,CC(=O)C,,,,,,
ZICQBHNGXDOVJF-UHFFFAOYSA-N,C1C2CC3C4CC5CC(C14)C(C2)C3C5,-1.578606935,29.99,Reaxys,acetone,CC(=O)C,,,,,,
ZIUSSTSXXLLKKK-SMSFQYLMSA-N,COC1=CC(\C=C\C(=O)C=C(O)\C=C\C2=CC=C(O)C(OC)=C2)=CC=C1O,-0.864231194,25.0,Reaxys,acetone,CC(=O)C,,,,,,
ZIXXRXGPBFMPFD-UHFFFAOYSA-N,ClC1=CC=C(SSC2=CC=C(Cl)C=C2)C=C1,0.139293696,29.79,Reaxys,acetone,CC(=O)C,,,,,,
ZKPLTLWJBLZUSM-UHFFFAOYSA-N,CC1=CC(=C(C)C(=C1N(=O)=O)N(=O)=O)N(=O)=O,-0.683335271,15.0,Reaxys,acetone,CC(=O)C,,,,,,
ZNNLBTZKUZBEKO-UHFFFAOYSA-N,COC1=CC=C(Cl)C=C1C(=O)NCCC1=CC=C(C=C1)S(=O)(=O)NC(=O)NC1CCCCC1,-1.83035784,,Reaxys,acetone,CC(=O)C,,,,,,
ZOTBXTZVPHCKPN-HTXNQAPBSA-N,CO\N=C(\C(=O)OC)C1=CC=CC=C1COC1=C(C)C=CC=C1,-0.159574123,20.0,Reaxys,acetone,CC(=O)C,,,,,,
ZPTVNYMJQHSSEA-UHFFFAOYSA-N,CC1=CC=C(C=C1)N(=O)=O,0.984337524,15.0,Reaxys,acetone,CC(=O)C,,,,,,
ZQBAKBUEJOMQEX-UHFFFAOYSA-N,OC1=CC=CC=C1C(=O)OC1=CC=CC=C1,0.563573103,30.0,Reaxys,acetone,CC(=O)C,,,,,,
ZQKCNHLMCZDMNN-WUXMJOGZSA-N,CCOC1=C(C=C(C=C1)N(=O)=O)\C=N\NC(N)=O,-2.029805828,20.0,Reaxys,acetone,CC(=O)C,,,,,,
ZQSIJRDFPHDXIC-UHFFFAOYSA-N,OC1=CC=C(C=C1)C1=COC2=CC(O)=CC=C2C1=O,-1.037276829,17.5,Reaxys,acetone,CC(=O)C,,,,,,
ZRDYULMDEGRWRC-UHFFFAOYSA-N,OC1=CC=C(C=C1)C(=O)C1=C(O)C(O)=C(O)C=C1,0.144793846,24.99,Reaxys,acetone,CC(=O)C,,,,,,
ZTHHRSBDBPCCMZ-UHFFFAOYSA-N,COC1=CN=C(Cl)N=C1Cl,0.671898215,24.19,Reaxys,acetone,CC(=O)C,,,,,,
ZUOUZKKEUPVFJK-UHFFFAOYSA-N,C1=CC=C(C=C1)C1=CC=CC=C1,0.684477909,25.0,Reaxys,acetone,CC(=O)C,,,,,,
ZUTCJXFCHHDFJS-UHFFFAOYSA-N,O=N(=O)C1=CC=CC2=C(C=CC=C12)N(=O)=O,-1.776470431,16.0,Reaxys,acetone,CC(=O)C,,,,,,
ZVNLUXZZYVQUTE-UHFFFAOYSA-N,OCP1(=O)OC2=C(C=CC=C2)C2=CC=CC=C12,-1.402735403,29.1,Reaxys,acetone,CC(=O)C,,,,,,
ZVNYJIZDIRKMBF-UHFFFAOYSA-N,COC1=CC=C(C=C1OC)C(=O)N1CCN(CC1)C1=CC2=C(NC(=O)CC2)C=C1,-2.896797821,25.0,Reaxys,acetone,CC(=O)C,,,,,,
ZXVONLUNISGICL-UHFFFAOYSA-N,CC1=C(O)C(=CC(=C1)N(=O)=O)N(=O)=O,0.600506438,15.0,Reaxys,acetone,CC(=O)C,,,,,,
AAEVYOVXGOFMJO-UHFFFAOYSA-N,,-4.1,,ONSchallenge,water,O,S(C)c1nc(NC(C)C)nc(NC(C)C)n1,http://dx.doi.org/10.1021/ci800406y,,,,
ABICJYZKIYUWEE-UHFFFAOYSA-N,,-2.28,,ONSchallenge,water,O,O=[N+]([O-])C1C(=O)NC(=O)NC1=O,http://dx.doi.org/10.1021/ci800406y,,,,
ADIMAYPTOBDMTL-UHFFFAOYSA-N,,-3.95,,ONSchallenge,water,O,Clc1cc2C(=NC(O)C(=O)Nc2cc1)c1ccccc1,http://dx.doi.org/10.1021/ci800406y,,,,
AEXMKKGTQYQZCS-UHFFFAOYSA-N,,-4.23,,ONSchallenge,water,O,C(CC)(CC)(C)C,http://dx.doi.org/10.1021/ci800406y,,,,
AFFLGGQVNFXPEV-UHFFFAOYSA-N,,-5.51,,ONSchallenge,water,O,C(=C)CCCCCCCC,http://dx.doi.org/10.1021/ci800406y,,,,
AFOGBLYPWJJVAL-UHFFFAOYSA-N,,-3.05,,ONSchallenge,water,O,S(=O)(=O)(NC(=O)NCCCC)c1ccccc1,http://dx.doi.org/10.1021/ci800406y,,,,
AFPHTEQTJZKQAQ-UHFFFAOYSA-N,,-1.71997,,ONSchallenge,water,O,O=[N+]([O-])c1cc(C(=O)O)ccc1,http://dx.doi.org/10.1016/j.molliq.2004.06.001,http://dx.doi.org/10.1021/ci800406y,http://dx.doi.org/10.1021/ci800406y,,
AFYCEAFSNDLKSX-UHFFFAOYSA-N,,-4.001,,ONSchallenge,water,O,O=c1oc2c(c(C)c1)ccc(N(CC)CC)c2,http://dx.doi.org/10.1021/ci800406y,,,,
AGAHNABIDCTLHW-UHFFFAOYSA-N,,-4.347,,ONSchallenge,water,O,Fc1ccc(C(=O)CCCN2CCC(O)(c3ccc(C)cc3)CC2)cc1,http://dx.doi.org/10.1021/ci800406y,,,,
AGMMTXLNIQSRCG-UHFFFAOYSA-N,,-3.29,,ONSchallenge,water,O,Clc1c(S(=O)(=O)N)cc2C(=O)NC(CC)Nc2c1,http://dx.doi.org/10.1021/ci800406y,,,,
AHJKRLASYNVKDZ-UHFFFAOYSA-N,,-7.199998,,ONSchallenge,water,O,ClC(Cl)C(c1ccc(Cl)cc1)c1ccc(Cl)cc1,http://dx.doi.org/10.1021/ci800406y,http://dx.doi.org/10.1021/ci800406y,,,
AIKKULXCBHRFOS-UHFFFAOYSA-N,,-2.0,,ONSchallenge,water,O,S=P(SCC(=O)N(C=O)C)(OC)OC,http://dx.doi.org/10.1021/ci800406y,,,,
AIVXUNRQBRKFJO-UHFFFAOYSA-N,,-3.494,,ONSchallenge,water,O,S(=O)(=O)(N)c1sc2C(=O)CCSc2c1,http://dx.doi.org/10.1021/ci800406y,,,,
AKUJBENLRBOFTD-UHFFFAOYSA-N,,-4.9,,ONSchallenge,water,O,FC12C3(C)C(=CC(=O)C=C3)CCC1C1C(C)(C(O)(C(=O)COC(=O)C)C(C)C1)CC2O,http://dx.doi.org/10.1021/ci800406y,,,,
AMEKQAFGQBKLKX-UHFFFAOYSA-N,,-2.43,,ONSchallenge,water,O,O=C(Nc1ccccc1)C1=C(OCCS1(=O)=O)C,http://dx.doi.org/10.1021/ci800406y,,,,
AMMPGYPPRLWMLW-UHFFFAOYSA-N,,-3.211,,ONSchallenge,water,O,O=[N+]([O-])c1cc(N)c(OCC)cc1,http://dx.doi.org/10.1021/ci800406y,,,,
AMQJEAYHLZJPGS-UHFFFAOYSA-N,,-0.6,,ONSchallenge,water,O,OCCCCC,http://dx.doi.org/10.1021/ci800406y,,,,
AMRQXHFXNZFDCH-UHFFFAOYSA-N,,-1.83,,ONSchallenge,water,O,O=C(OC(C(=O)NCC)C)Nc1ccccc1,http://dx.doi.org/10.1021/ci800406y,,,,
ANJTVLIZGCUXLD-UHFFFAOYSA-N,,0.36,,ONSchallenge,water,O,O=c1n2c(ccc1)C1CNCC(C2)C1,http://dx.doi.org/10.1021/ci800406y,,,,
APSMUYYLXZULMS-UHFFFAOYSA-N,,-4.4,,ONSchallenge,water,O,Brc1cc2c(cc1)cccc2,http://dx.doi.org/10.1021/ci800406y,,,,
APTGDJCKNMNFID-UHFFFAOYSA-N,,-1.539,,ONSchallenge,water,O,S(=O)(=O)(N)c1sc2S(=O)(=O)CC(O)Cc2c1,http://dx.doi.org/10.1021/ci800406y,,,,
AQCHWTWZEMGIFD-UHFFFAOYSA-N,,-3.78,,ONSchallenge,water,O,Clc1c(S(=O)(=O)N)cc2C(=O)N(c3c(C)cccc3)C(C)Nc2c1,http://dx.doi.org/10.1021/ci800406y,,,,
AQIXAKUUQRKLND-UHFFFAOYSA-N,,-1.40229,,ONSchallenge,water,O,S(CCN/C(=N/C)/NC#N)Cc1c(C)[nH]cn1,,,,,
AQIXEPGDORPWBJ-UHFFFAOYSA-N,,-0.24,,ONSchallenge,water,O,OC(CC)CC,http://dx.doi.org/10.1021/ci800406y,,,,
ARCGXLSVLAOJQL-UHFFFAOYSA-N,,-0.397,,ONSchallenge,water,O,O=C(O)c1c(C(=O)O)ccc(C(=O)O)c1,http://dx.doi.org/10.1021/ci800406y,,,,
ARGDYOIRHYLIMT-UHFFFAOYSA-N,,-3.509,,ONSchallenge,water,O,ClN(Cl)S(=O)(=O)c1ccc(C)cc1,http://dx.doi.org/10.1021/ci800406y,,,,
ARSRBNBHOADGJU-UHFFFAOYSA-N,,-7.020001,,ONSchallenge,water,O,Cc1c2c(c(C)c3c1cccc3)ccc1c2cccc1,http://dx.doi.org/10.1021/ci800406y,,,,
ATROHALUCMTWTB-UHFFFAOYSA-N,,-4.86,,ONSchallenge,water,O,S=P(ON=C(C#N)c1ccccc1)(OCC)OCC,http://dx.doi.org/10.1021/ci800406y,,,,
AUKRYONWZHRJRE-UHFFFAOYSA-N,,-4.73,,ONSchallenge,water,O,Oc1c2c(cc3c1cccc3)cccc2,http://dx.doi.org/10.1021/ci800406y,,,,
AUNGANRZJHBGPY-UHFFFAOYSA-N,,-3.68,,ONSchallenge,water,O,O=c1nc2n(CC(O)C(O)C(O)CO)c3c(nc2c(=O)[nH]1)cc(C)c(C)c3,http://dx.doi.org/10.1021/ci800406y,,,,
AUZONCFQVSMFAP-UHFFFAOYSA-N,,-4.71725,,ONSchallenge,water,O,S(SC(=S)N(CC)CC)C(=S)N(CC)CC,http://www.springerlink.com/content/um5p375020237780/,http://dx.doi.org/10.1021/ci800406y,,,
AVQQQNCBBIEMEU-UHFFFAOYSA-N,,0.94,,ONSchallenge,water,O,O=C(N(C)C)N(C)C,http://dx.doi.org/10.1021/ci800406y,,,,
AVZVLGDSSQKRGL-UHFFFAOYSA-N,,-1.773,,ONSchallenge,water,O,O=C(COC(=O)c1ccccc1)N1CCOCC1,http://dx.doi.org/10.1021/ci800406y,,,,
AWMVMTVKBNGEAK-UHFFFAOYSA-N,,-1.6,,ONSchallenge,water,O,c1(C2OC2)ccccc1,http://dx.doi.org/10.1021/ci800406y,http://dx.doi.org/10.1021/ci800406y,,,
AXGUBXVWZBFQGA-UHFFFAOYSA-N,,-4.53,,ONSchallenge,water,O,Clc1ccc(C(O)(C(=O)OC(C)C)c2ccc(Cl)cc2)cc1,http://dx.doi.org/10.1021/ci800406y,,,,
AYFVYJQAPQTCCC-UHFFFAOYSA-N,,-0.09,,ONSchallenge,water,O,O=C(O)C(N)C(O)C,http://dx.doi.org/10.1021/ci800406y,,,,
BACHBFVBHLGWSL-UHFFFAOYSA-N,,-3.82,,ONSchallenge,water,O,Clc1c(Oc2ccc(OC(C(=O)OC)C)cc2)ccc(Cl)c1,http://dx.doi.org/10.1021/ci800406y,,,,
BAPJBEWLBFYGME-UHFFFAOYSA-N,,-0.22,,ONSchallenge,water,O,O=C(OC)C=C,http://dx.doi.org/10.1021/ci800406y,http://dx.doi.org/10.1021/ci800406y,,,
BBEAQIROQSPTKN-UHFFFAOYSA-N,,-6.172998,,ONSchallenge,water,O,c12c3c4ccc1cccc2ccc3ccc4,http://dx.doi.org/10.1016/S0378-3812(02)00077-8,http://dx.doi.org/10.1021/ci800406y,http://dx.doi.org/10.1021/ci800406y,,
BBXXLROWFHWFQY-UHFFFAOYSA-N,,-3.02497,,ONSchallenge,water,O,O=c1c(CCCC)c(C)nc(NCC)[nH]1,http://dx.doi.org/10.1021/ci800406y,,,,
BCCOBQSFUDVTJQ-UHFFFAOYSA-N,,-3.92,,ONSchallenge,water,O,FC1(F)C(F)(F)C(F)(F)C1(F)F,http://dx.doi.org/10.1021/ci800406y,,,,
BCMCBBGGLRIHSE-UHFFFAOYSA-N,,-1.16,,ONSchallenge,water,O,o1c2c(nc1)cccc2,http://dx.doi.org/10.1021/ci800406y,,,,
BDERNNFJNOPAEC-UHFFFAOYSA-N,,0.62,,ONSchallenge,water,O,OCCC,http://dx.doi.org/10.1021/ci800406y,,,,
BFCFYVKQTRLZHA-UHFFFAOYSA-N,,-2.55,,ONSchallenge,water,O,Clc1c([N+](=O)[O-])cccc1,http://dx.doi.org/10.1021/ci800406y,,,,
BFPYWIDHMRZLRN-UHFFFAOYSA-N,,-4.3,,ONSchallenge,water,O,Oc1cc2c(cc1)C1C(C3C(C)(C(O)(C#C)CC3)CC1)CC2,http://dx.doi.org/10.1021/ci800406y,,,,
BGHCVCJVXZWKCC-UHFFFAOYSA-N,,-7.959992,,ONSchallenge,water,O,C(CCCCCCC)CCCCCC,http://dx.doi.org/10.1021/ci800406y,,,,